
Host: shannon-book.local

Timers On : Mon Jul  2 09:50:26 2018
Timers Off: Mon Jul  2 09:51:41 2018

Wall Time:       74.30 seconds


-----------------------------------------------------------

***********************************************************

Host: shannon-book.local

Timers On : Mon Jul  2 09:51:46 2018
Timers Off: Mon Jul  2 09:52:08 2018

Wall Time:       22.30 seconds


-----------------------------------------------------------

***********************************************************

Host: shannon-book.local

Timers On : Mon Jul  2 09:52:13 2018
Timers Off: Mon Jul  2 09:52:22 2018

Wall Time:        9.41 seconds

JK: (A|mn)                  :      0.017u      0.000s      0.008w      1 calls
JK: (A|Q)^-1/2              :      0.017u      0.000s      0.025w      1 calls
JK: (Q|mn)                  :      0.000u      0.000s      0.000w      1 calls
HF: Form H                  :      0.000u      0.000s      0.004w      1 calls
HF: Form S/X                :      0.000u      0.000s      0.000w      1 calls
HF: Guess                   :      0.050u      0.000s      0.027w      1 calls
SAD Guess                   :      0.033u      0.000s      0.024w      1 calls
HF: Form G                  :      0.000u      0.000s      0.001w      5 calls
JK: D                       :      0.000u      0.000s      0.000w      5 calls
JK: USO2AO                  :      0.000u      0.000s      0.000w      5 calls
JK: JK                      :      0.000u      0.000s      0.001w      5 calls
JK: J                       :      0.000u      0.000s      0.000w      5 calls
JK: J1                      :      0.000u      0.000s      0.000w      5 calls
JK: J2                      :      0.000u      0.000s      0.000w      5 calls
JK: K                       :      0.000u      0.000s      0.000w      5 calls
JK: K1                      :      0.000u      0.000s      0.000w      5 calls
JK: K2                      :      0.000u      0.000s      0.000w      5 calls
JK: AO2USO                  :      0.000u      0.000s      0.000w      5 calls
HF: Form F                  :      0.000u      0.000s      0.000w      5 calls
HF: DIIS                    :      0.000u      0.000s      0.001w      5 calls
DIISManager::add_entry      :      0.000u      0.000s      0.000w      4 calls
DIISManager::extrapolate    :      0.000u      0.000s      0.000w      3 calls
bMatrix setup               :      0.000u      0.000s      0.000w      3 calls
bMatrix pseudoinverse       :      0.000u      0.000s      0.000w      3 calls
New vector                  :      0.000u      0.000s      0.000w      3 calls
HF: Form C                  :      0.000u      0.000s      0.000w      5 calls
HF: Form D                  :      0.000u      0.000s      0.000w      5 calls

-----------------------------------------------------------
JK: (A|mn)                  :      0.017u      0.000s      0.008w      1 calls
JK: (A|Q)^-1/2              :      0.017u      0.000s      0.025w      1 calls
JK: (Q|mn)                  :      0.000u      0.000s      0.000w      1 calls
HF: Form H                  :      0.000u      0.000s      0.004w      1 calls
HF: Form S/X                :      0.000u      0.000s      0.000w      1 calls
HF: Guess                   :      0.050u      0.000s      0.027w      1 calls
| SAD Guess                 :      0.033u      0.000s      0.024w      1 calls
HF: Form G                  :      0.000u      0.000s      0.001w      5 calls
| JK: D                     :      0.000u      0.000s      0.000w      5 calls
| JK: USO2AO                :      0.000u      0.000s      0.000w      5 calls
| JK: JK                    :      0.000u      0.000s      0.001w      5 calls
| | JK: J                   :      0.000u      0.000s      0.000w      5 calls
| | | JK: J1                :      0.000u      0.000s      0.000w      5 calls
| | | JK: J2                :      0.000u      0.000s      0.000w      5 calls
| | JK: K                   :      0.000u      0.000s      0.000w      5 calls
| | | JK: K1                :      0.000u      0.000s      0.000w      5 calls
| | | JK: K2                :      0.000u      0.000s      0.000w      5 calls
| JK: AO2USO                :      0.000u      0.000s      0.000w      5 calls
HF: Form F                  :      0.000u      0.000s      0.000w      5 calls
HF: DIIS                    :      0.000u      0.000s      0.001w      5 calls
| DIISManager::add_entry    :      0.000u      0.000s      0.000w      4 calls
| DIISManager::extrapolate  :      0.000u      0.000s      0.000w      3 calls
| | bMatrix setup           :      0.000u      0.000s      0.000w      3 calls
| | bMatrix pseudoinverse   :      0.000u      0.000s      0.000w      3 calls
| | New vector              :      0.000u      0.000s      0.000w      3 calls
HF: Form C                  :      0.000u      0.000s      0.000w      5 calls
HF: Form D                  :      0.000u      0.000s      0.000w      5 calls

***********************************************************

Host: shannon-book.local

Timers On : Mon Jul  2 10:00:28 2018
Timers Off: Mon Jul  2 10:01:30 2018

Wall Time:       61.62 seconds

JK: (A|mn)                  :      0.000u      0.000s      0.008w      2 calls
JK: (A|Q)^-1/2              :      0.050u      0.000s      0.041w      2 calls
JK: (Q|mn)                  :      0.017u      0.000s      0.000w      2 calls
HF: Form H                  :      0.000u      0.000s      0.008w      2 calls
HF: Form S/X                :      0.000u      0.000s      0.000w      2 calls
HF: Guess                   :      0.083u      0.000s      0.054w      2 calls
SAD Guess                   :      0.067u      0.000s      0.050w      2 calls
HF: Form G                  :      0.000u      0.000s      0.004w     10 calls
JK: D                       :      0.000u      0.000s      0.000w     10 calls
JK: USO2AO                  :      0.000u      0.000s      0.000w     10 calls
JK: JK                      :      0.000u      0.000s      0.003w     10 calls
JK: J                       :      0.000u      0.000s      0.000w     10 calls
JK: J1                      :      0.000u      0.000s      0.000w     10 calls
JK: J2                      :      0.000u      0.000s      0.000w     10 calls
JK: K                       :      0.000u      0.000s      0.002w     10 calls
JK: K1                      :      0.000u      0.000s      0.001w     10 calls
JK: K2                      :      0.000u      0.000s      0.000w     10 calls
JK: AO2USO                  :      0.000u      0.000s      0.000w     10 calls
HF: Form F                  :      0.000u      0.000s      0.000w     10 calls
HF: DIIS                    :      0.000u      0.017s      0.002w     10 calls
DIISManager::add_entry      :      0.000u      0.017s      0.001w      8 calls
DIISManager::extrapolate    :      0.000u      0.000s      0.000w      6 calls
bMatrix setup               :      0.000u      0.000s      0.000w      6 calls
bMatrix pseudoinverse       :      0.000u      0.000s      0.000w      6 calls
New vector                  :      0.000u      0.000s      0.000w      6 calls
HF: Form C                  :      0.000u      0.000s      0.000w     10 calls
HF: Form D                  :      0.000u      0.000s      0.000w     10 calls

-----------------------------------------------------------
JK: (A|mn)                  :      0.000u      0.000s      0.008w      2 calls
JK: (A|Q)^-1/2              :      0.050u      0.000s      0.041w      2 calls
JK: (Q|mn)                  :      0.017u      0.000s      0.000w      2 calls
HF: Form H                  :      0.000u      0.000s      0.008w      2 calls
HF: Form S/X                :      0.000u      0.000s      0.000w      2 calls
HF: Guess                   :      0.083u      0.000s      0.054w      2 calls
| SAD Guess                 :      0.067u      0.000s      0.050w      2 calls
HF: Form G                  :      0.000u      0.000s      0.004w     10 calls
| JK: D                     :      0.000u      0.000s      0.000w     10 calls
| JK: USO2AO                :      0.000u      0.000s      0.000w     10 calls
| JK: JK                    :      0.000u      0.000s      0.003w     10 calls
| | JK: J                   :      0.000u      0.000s      0.000w     10 calls
| | | JK: J1                :      0.000u      0.000s      0.000w     10 calls
| | | JK: J2                :      0.000u      0.000s      0.000w     10 calls
| | JK: K                   :      0.000u      0.000s      0.002w     10 calls
| | | JK: K1                :      0.000u      0.000s      0.001w     10 calls
| | | JK: K2                :      0.000u      0.000s      0.000w     10 calls
| JK: AO2USO                :      0.000u      0.000s      0.000w     10 calls
HF: Form F                  :      0.000u      0.000s      0.000w     10 calls
HF: DIIS                    :      0.000u      0.017s      0.002w     10 calls
| DIISManager::add_entry    :      0.000u      0.017s      0.001w      8 calls
| DIISManager::extrapolate  :      0.000u      0.000s      0.000w      6 calls
| | bMatrix setup           :      0.000u      0.000s      0.000w      6 calls
| | bMatrix pseudoinverse   :      0.000u      0.000s      0.000w      6 calls
| | New vector              :      0.000u      0.000s      0.000w      6 calls
HF: Form C                  :      0.000u      0.000s      0.000w     10 calls
HF: Form D                  :      0.000u      0.000s      0.000w     10 calls

***********************************************************

Host: shannon-book.local

Timers On : Mon Jul  2 10:01:36 2018
Timers Off: Mon Jul  2 10:02:00 2018

Wall Time:       24.21 seconds

JK: (A|mn)                  :      0.000u      0.000s      0.007w      2 calls
JK: (A|Q)^-1/2              :      0.067u      0.000s      0.039w      2 calls
JK: (Q|mn)                  :      0.000u      0.000s      0.000w      2 calls
HF: Form H                  :      0.000u      0.000s      0.007w      2 calls
HF: Form S/X                :      0.000u      0.000s      0.000w      2 calls
HF: Guess                   :      0.083u      0.017s      0.055w      2 calls
SAD Guess                   :      0.083u      0.017s      0.050w      2 calls
HF: Form G                  :      0.017u      0.000s      0.002w     10 calls
JK: D                       :      0.000u      0.000s      0.000w     10 calls
JK: USO2AO                  :      0.000u      0.000s      0.000w     10 calls
JK: JK                      :      0.017u      0.000s      0.001w     10 calls
JK: J                       :      0.000u      0.000s      0.000w     10 calls
JK: J1                      :      0.000u      0.000s      0.000w     10 calls
JK: J2                      :      0.000u      0.000s      0.000w     10 calls
JK: K                       :      0.017u      0.000s      0.001w     10 calls
JK: K1                      :      0.000u      0.000s      0.001w     10 calls
JK: K2                      :      0.017u      0.000s      0.000w     10 calls
JK: AO2USO                  :      0.000u      0.000s      0.000w     10 calls
HF: Form F                  :      0.000u      0.000s      0.000w     10 calls
HF: DIIS                    :      0.000u      0.000s      0.001w     10 calls
DIISManager::add_entry      :      0.000u      0.000s      0.001w      8 calls
DIISManager::extrapolate    :      0.000u      0.000s      0.000w      6 calls
bMatrix setup               :      0.000u      0.000s      0.000w      6 calls
bMatrix pseudoinverse       :      0.000u      0.000s      0.000w      6 calls
New vector                  :      0.000u      0.000s      0.000w      6 calls
HF: Form C                  :      0.000u      0.000s      0.000w     10 calls
HF: Form D                  :      0.000u      0.000s      0.000w     10 calls

-----------------------------------------------------------
JK: (A|mn)                  :      0.000u      0.000s      0.007w      2 calls
JK: (A|Q)^-1/2              :      0.067u      0.000s      0.039w      2 calls
JK: (Q|mn)                  :      0.000u      0.000s      0.000w      2 calls
HF: Form H                  :      0.000u      0.000s      0.007w      2 calls
HF: Form S/X                :      0.000u      0.000s      0.000w      2 calls
HF: Guess                   :      0.083u      0.017s      0.055w      2 calls
| SAD Guess                 :      0.083u      0.017s      0.050w      2 calls
HF: Form G                  :      0.017u      0.000s      0.002w     10 calls
| JK: D                     :      0.000u      0.000s      0.000w     10 calls
| JK: USO2AO                :      0.000u      0.000s      0.000w     10 calls
| JK: JK                    :      0.017u      0.000s      0.001w     10 calls
| | JK: J                   :      0.000u      0.000s      0.000w     10 calls
| | | JK: J1                :      0.000u      0.000s      0.000w     10 calls
| | | JK: J2                :      0.000u      0.000s      0.000w     10 calls
| | JK: K                   :      0.017u      0.000s      0.001w     10 calls
| | | JK: K1                :      0.000u      0.000s      0.001w     10 calls
| | | JK: K2                :      0.017u      0.000s      0.000w     10 calls
| JK: AO2USO                :      0.000u      0.000s      0.000w     10 calls
HF: Form F                  :      0.000u      0.000s      0.000w     10 calls
HF: DIIS                    :      0.000u      0.000s      0.001w     10 calls
| DIISManager::add_entry    :      0.000u      0.000s      0.001w      8 calls
| DIISManager::extrapolate  :      0.000u      0.000s      0.000w      6 calls
| | bMatrix setup           :      0.000u      0.000s      0.000w      6 calls
| | bMatrix pseudoinverse   :      0.000u      0.000s      0.000w      6 calls
| | New vector              :      0.000u      0.000s      0.000w      6 calls
HF: Form C                  :      0.000u      0.000s      0.000w     10 calls
HF: Form D                  :      0.000u      0.000s      0.000w     10 calls

***********************************************************

Host: shannon-book.local

Timers On : Mon Jul  2 10:02:12 2018
Timers Off: Mon Jul  2 10:10:33 2018

Wall Time:      500.40 seconds

JK: (A|mn)                  :      0.000u      0.000s      0.003w      1 calls
JK: (A|Q)^-1/2              :      0.033u      0.000s      0.022w      1 calls
JK: (Q|mn)                  :      0.000u      0.000s      0.000w      1 calls
HF: Form H                  :      0.000u      0.017s      0.004w      1 calls
HF: Form S/X                :      0.000u      0.000s      0.000w      1 calls
HF: Guess                   :      0.033u      0.000s      0.026w      1 calls
SAD Guess                   :      0.033u      0.000s      0.024w      1 calls
HF: Form G                  :      0.000u      0.000s      0.001w      5 calls
JK: D                       :      0.000u      0.000s      0.000w      5 calls
JK: USO2AO                  :      0.000u      0.000s      0.000w      5 calls
JK: JK                      :      0.000u      0.000s      0.001w      5 calls
JK: J                       :      0.000u      0.000s      0.000w      5 calls
JK: J1                      :      0.000u      0.000s      0.000w      5 calls
JK: J2                      :      0.000u      0.000s      0.000w      5 calls
JK: K                       :      0.000u      0.000s      0.001w      5 calls
JK: K1                      :      0.000u      0.000s      0.000w      5 calls
JK: K2                      :      0.000u      0.000s      0.000w      5 calls
JK: AO2USO                  :      0.000u      0.000s      0.000w      5 calls
HF: Form F                  :      0.000u      0.000s      0.000w      5 calls
HF: DIIS                    :      0.000u      0.000s      0.001w      5 calls
DIISManager::add_entry      :      0.000u      0.000s      0.000w      4 calls
DIISManager::extrapolate    :      0.000u      0.000s      0.000w      3 calls
bMatrix setup               :      0.000u      0.000s      0.000w      3 calls
bMatrix pseudoinverse       :      0.000u      0.000s      0.000w      3 calls
New vector                  :      0.000u      0.000s      0.000w      3 calls
HF: Form C                  :      0.000u      0.000s      0.000w      5 calls
HF: Form D                  :      0.000u      0.000s      0.000w      5 calls

-----------------------------------------------------------
JK: (A|mn)                  :      0.000u      0.000s      0.003w      1 calls
JK: (A|Q)^-1/2              :      0.033u      0.000s      0.022w      1 calls
JK: (Q|mn)                  :      0.000u      0.000s      0.000w      1 calls
HF: Form H                  :      0.000u      0.017s      0.004w      1 calls
HF: Form S/X                :      0.000u      0.000s      0.000w      1 calls
HF: Guess                   :      0.033u      0.000s      0.026w      1 calls
| SAD Guess                 :      0.033u      0.000s      0.024w      1 calls
HF: Form G                  :      0.000u      0.000s      0.001w      5 calls
| JK: D                     :      0.000u      0.000s      0.000w      5 calls
| JK: USO2AO                :      0.000u      0.000s      0.000w      5 calls
| JK: JK                    :      0.000u      0.000s      0.001w      5 calls
| | JK: J                   :      0.000u      0.000s      0.000w      5 calls
| | | JK: J1                :      0.000u      0.000s      0.000w      5 calls
| | | JK: J2                :      0.000u      0.000s      0.000w      5 calls
| | JK: K                   :      0.000u      0.000s      0.001w      5 calls
| | | JK: K1                :      0.000u      0.000s      0.000w      5 calls
| | | JK: K2                :      0.000u      0.000s      0.000w      5 calls
| JK: AO2USO                :      0.000u      0.000s      0.000w      5 calls
HF: Form F                  :      0.000u      0.000s      0.000w      5 calls
HF: DIIS                    :      0.000u      0.000s      0.001w      5 calls
| DIISManager::add_entry    :      0.000u      0.000s      0.000w      4 calls
| DIISManager::extrapolate  :      0.000u      0.000s      0.000w      3 calls
| | bMatrix setup           :      0.000u      0.000s      0.000w      3 calls
| | bMatrix pseudoinverse   :      0.000u      0.000s      0.000w      3 calls
| | New vector              :      0.000u      0.000s      0.000w      3 calls
HF: Form C                  :      0.000u      0.000s      0.000w      5 calls
HF: Form D                  :      0.000u      0.000s      0.000w      5 calls

***********************************************************

Host: shannon-book.local

Timers On : Mon Jul  2 10:10:55 2018
Timers Off: Mon Jul  2 10:11:20 2018

Wall Time:       24.46 seconds

JK: (A|mn)                  :      0.017u      0.000s      0.004w      1 calls
JK: (A|Q)^-1/2              :      0.017u      0.000s      0.020w      1 calls
JK: (Q|mn)                  :      0.000u      0.000s      0.000w      1 calls
HF: Form H                  :      0.000u      0.000s      0.003w      1 calls
HF: Form S/X                :      0.000u      0.000s      0.000w      1 calls
HF: Guess                   :      0.050u      0.000s      0.027w      1 calls
SAD Guess                   :      0.033u      0.000s      0.025w      1 calls
HF: Form G                  :      0.000u      0.000s      0.001w      5 calls
JK: D                       :      0.000u      0.000s      0.000w      5 calls
JK: USO2AO                  :      0.000u      0.000s      0.000w      5 calls
JK: JK                      :      0.000u      0.000s      0.001w      5 calls
JK: J                       :      0.000u      0.000s      0.000w      5 calls
JK: J1                      :      0.000u      0.000s      0.000w      5 calls
JK: J2                      :      0.000u      0.000s      0.000w      5 calls
JK: K                       :      0.000u      0.000s      0.000w      5 calls
JK: K1                      :      0.000u      0.000s      0.000w      5 calls
JK: K2                      :      0.000u      0.000s      0.000w      5 calls
JK: AO2USO                  :      0.000u      0.000s      0.000w      5 calls
HF: Form F                  :      0.000u      0.000s      0.000w      5 calls
HF: DIIS                    :      0.000u      0.000s      0.001w      5 calls
DIISManager::add_entry      :      0.000u      0.000s      0.000w      4 calls
DIISManager::extrapolate    :      0.000u      0.000s      0.000w      3 calls
bMatrix setup               :      0.000u      0.000s      0.000w      3 calls
bMatrix pseudoinverse       :      0.000u      0.000s      0.000w      3 calls
New vector                  :      0.000u      0.000s      0.000w      3 calls
HF: Form C                  :      0.000u      0.000s      0.000w      5 calls
HF: Form D                  :      0.000u      0.000s      0.000w      5 calls

-----------------------------------------------------------
JK: (A|mn)                  :      0.017u      0.000s      0.004w      1 calls
JK: (A|Q)^-1/2              :      0.017u      0.000s      0.020w      1 calls
JK: (Q|mn)                  :      0.000u      0.000s      0.000w      1 calls
HF: Form H                  :      0.000u      0.000s      0.003w      1 calls
HF: Form S/X                :      0.000u      0.000s      0.000w      1 calls
HF: Guess                   :      0.050u      0.000s      0.027w      1 calls
| SAD Guess                 :      0.033u      0.000s      0.025w      1 calls
HF: Form G                  :      0.000u      0.000s      0.001w      5 calls
| JK: D                     :      0.000u      0.000s      0.000w      5 calls
| JK: USO2AO                :      0.000u      0.000s      0.000w      5 calls
| JK: JK                    :      0.000u      0.000s      0.001w      5 calls
| | JK: J                   :      0.000u      0.000s      0.000w      5 calls
| | | JK: J1                :      0.000u      0.000s      0.000w      5 calls
| | | JK: J2                :      0.000u      0.000s      0.000w      5 calls
| | JK: K                   :      0.000u      0.000s      0.000w      5 calls
| | | JK: K1                :      0.000u      0.000s      0.000w      5 calls
| | | JK: K2                :      0.000u      0.000s      0.000w      5 calls
| JK: AO2USO                :      0.000u      0.000s      0.000w      5 calls
HF: Form F                  :      0.000u      0.000s      0.000w      5 calls
HF: DIIS                    :      0.000u      0.000s      0.001w      5 calls
| DIISManager::add_entry    :      0.000u      0.000s      0.000w      4 calls
| DIISManager::extrapolate  :      0.000u      0.000s      0.000w      3 calls
| | bMatrix setup           :      0.000u      0.000s      0.000w      3 calls
| | bMatrix pseudoinverse   :      0.000u      0.000s      0.000w      3 calls
| | New vector              :      0.000u      0.000s      0.000w      3 calls
HF: Form C                  :      0.000u      0.000s      0.000w      5 calls
HF: Form D                  :      0.000u      0.000s      0.000w      5 calls

***********************************************************

Host: shannon-book.local

Timers On : Mon Jul  2 10:11:31 2018
Timers Off: Mon Jul  2 10:17:28 2018

Wall Time:      356.68 seconds

JK: (A|mn)                  :      0.000u      0.000s      0.003w      1 calls
JK: (A|Q)^-1/2              :      0.033u      0.000s      0.022w      1 calls
JK: (Q|mn)                  :      0.000u      0.017s      0.000w      1 calls
HF: Form H                  :      0.000u      0.000s      0.004w      1 calls
HF: Form S/X                :      0.000u      0.000s      0.000w      1 calls
HF: Guess                   :      0.033u      0.000s      0.026w      1 calls
SAD Guess                   :      0.033u      0.000s      0.024w      1 calls
HF: Form G                  :      0.000u      0.000s      0.001w      5 calls
JK: D                       :      0.000u      0.000s      0.000w      5 calls
JK: USO2AO                  :      0.000u      0.000s      0.000w      5 calls
JK: JK                      :      0.000u      0.000s      0.001w      5 calls
JK: J                       :      0.000u      0.000s      0.000w      5 calls
JK: J1                      :      0.000u      0.000s      0.000w      5 calls
JK: J2                      :      0.000u      0.000s      0.000w      5 calls
JK: K                       :      0.000u      0.000s      0.000w      5 calls
JK: K1                      :      0.000u      0.000s      0.000w      5 calls
JK: K2                      :      0.000u      0.000s      0.000w      5 calls
JK: AO2USO                  :      0.000u      0.000s      0.000w      5 calls
HF: Form F                  :      0.000u      0.000s      0.000w      5 calls
HF: DIIS                    :      0.000u      0.000s      0.001w      5 calls
DIISManager::add_entry      :      0.000u      0.000s      0.000w      4 calls
DIISManager::extrapolate    :      0.000u      0.000s      0.000w      3 calls
bMatrix setup               :      0.000u      0.000s      0.000w      3 calls
bMatrix pseudoinverse       :      0.000u      0.000s      0.000w      3 calls
New vector                  :      0.000u      0.000s      0.000w      3 calls
HF: Form C                  :      0.000u      0.000s      0.000w      5 calls
HF: Form D                  :      0.000u      0.000s      0.000w      5 calls

-----------------------------------------------------------
JK: (A|mn)                  :      0.000u      0.000s      0.003w      1 calls
JK: (A|Q)^-1/2              :      0.033u      0.000s      0.022w      1 calls
JK: (Q|mn)                  :      0.000u      0.017s      0.000w      1 calls
HF: Form H                  :      0.000u      0.000s      0.004w      1 calls
HF: Form S/X                :      0.000u      0.000s      0.000w      1 calls
HF: Guess                   :      0.033u      0.000s      0.026w      1 calls
| SAD Guess                 :      0.033u      0.000s      0.024w      1 calls
HF: Form G                  :      0.000u      0.000s      0.001w      5 calls
| JK: D                     :      0.000u      0.000s      0.000w      5 calls
| JK: USO2AO                :      0.000u      0.000s      0.000w      5 calls
| JK: JK                    :      0.000u      0.000s      0.001w      5 calls
| | JK: J                   :      0.000u      0.000s      0.000w      5 calls
| | | JK: J1                :      0.000u      0.000s      0.000w      5 calls
| | | JK: J2                :      0.000u      0.000s      0.000w      5 calls
| | JK: K                   :      0.000u      0.000s      0.000w      5 calls
| | | JK: K1                :      0.000u      0.000s      0.000w      5 calls
| | | JK: K2                :      0.000u      0.000s      0.000w      5 calls
| JK: AO2USO                :      0.000u      0.000s      0.000w      5 calls
HF: Form F                  :      0.000u      0.000s      0.000w      5 calls
HF: DIIS                    :      0.000u      0.000s      0.001w      5 calls
| DIISManager::add_entry    :      0.000u      0.000s      0.000w      4 calls
| DIISManager::extrapolate  :      0.000u      0.000s      0.000w      3 calls
| | bMatrix setup           :      0.000u      0.000s      0.000w      3 calls
| | bMatrix pseudoinverse   :      0.000u      0.000s      0.000w      3 calls
| | New vector              :      0.000u      0.000s      0.000w      3 calls
HF: Form C                  :      0.000u      0.000s      0.000w      5 calls
HF: Form D                  :      0.000u      0.000s      0.000w      5 calls

***********************************************************

Host: shannon-book.local

Timers On : Mon Jul  2 10:17:35 2018
Timers Off: Mon Jul  2 10:17:48 2018

Wall Time:       12.52 seconds

JK: (A|mn)                  :      0.000u      0.000s      0.004w      1 calls
JK: (A|Q)^-1/2              :      0.033u      0.017s      0.020w      1 calls
JK: (Q|mn)                  :      0.000u      0.000s      0.000w      1 calls
HF: Form H                  :      0.000u      0.000s      0.003w      1 calls
HF: Form S/X                :      0.000u      0.000s      0.000w      1 calls
HF: Guess                   :      0.050u      0.000s      0.027w      1 calls
SAD Guess                   :      0.050u      0.000s      0.025w      1 calls
HF: Form G                  :      0.000u      0.000s      0.001w      5 calls
JK: D                       :      0.000u      0.000s      0.000w      5 calls
JK: USO2AO                  :      0.000u      0.000s      0.000w      5 calls
JK: JK                      :      0.000u      0.000s      0.001w      5 calls
JK: J                       :      0.000u      0.000s      0.000w      5 calls
JK: J1                      :      0.000u      0.000s      0.000w      5 calls
JK: J2                      :      0.000u      0.000s      0.000w      5 calls
JK: K                       :      0.000u      0.000s      0.001w      5 calls
JK: K1                      :      0.000u      0.000s      0.000w      5 calls
JK: K2                      :      0.000u      0.000s      0.000w      5 calls
JK: AO2USO                  :      0.000u      0.000s      0.000w      5 calls
HF: Form F                  :      0.000u      0.000s      0.000w      5 calls
HF: DIIS                    :      0.000u      0.000s      0.001w      5 calls
DIISManager::add_entry      :      0.000u      0.000s      0.001w      4 calls
DIISManager::extrapolate    :      0.000u      0.000s      0.000w      3 calls
bMatrix setup               :      0.000u      0.000s      0.000w      3 calls
bMatrix pseudoinverse       :      0.000u      0.000s      0.000w      3 calls
New vector                  :      0.000u      0.000s      0.000w      3 calls
HF: Form C                  :      0.000u      0.000s      0.000w      5 calls
HF: Form D                  :      0.000u      0.000s      0.000w      5 calls

-----------------------------------------------------------
JK: (A|mn)                  :      0.000u      0.000s      0.004w      1 calls
JK: (A|Q)^-1/2              :      0.033u      0.017s      0.020w      1 calls
JK: (Q|mn)                  :      0.000u      0.000s      0.000w      1 calls
HF: Form H                  :      0.000u      0.000s      0.003w      1 calls
HF: Form S/X                :      0.000u      0.000s      0.000w      1 calls
HF: Guess                   :      0.050u      0.000s      0.027w      1 calls
| SAD Guess                 :      0.050u      0.000s      0.025w      1 calls
HF: Form G                  :      0.000u      0.000s      0.001w      5 calls
| JK: D                     :      0.000u      0.000s      0.000w      5 calls
| JK: USO2AO                :      0.000u      0.000s      0.000w      5 calls
| JK: JK                    :      0.000u      0.000s      0.001w      5 calls
| | JK: J                   :      0.000u      0.000s      0.000w      5 calls
| | | JK: J1                :      0.000u      0.000s      0.000w      5 calls
| | | JK: J2                :      0.000u      0.000s      0.000w      5 calls
| | JK: K                   :      0.000u      0.000s      0.001w      5 calls
| | | JK: K1                :      0.000u      0.000s      0.000w      5 calls
| | | JK: K2                :      0.000u      0.000s      0.000w      5 calls
| JK: AO2USO                :      0.000u      0.000s      0.000w      5 calls
HF: Form F                  :      0.000u      0.000s      0.000w      5 calls
HF: DIIS                    :      0.000u      0.000s      0.001w      5 calls
| DIISManager::add_entry    :      0.000u      0.000s      0.001w      4 calls
| DIISManager::extrapolate  :      0.000u      0.000s      0.000w      3 calls
| | bMatrix setup           :      0.000u      0.000s      0.000w      3 calls
| | bMatrix pseudoinverse   :      0.000u      0.000s      0.000w      3 calls
| | New vector              :      0.000u      0.000s      0.000w      3 calls
HF: Form C                  :      0.000u      0.000s      0.000w      5 calls
HF: Form D                  :      0.000u      0.000s      0.000w      5 calls

***********************************************************

Host: shannon-book.local

Timers On : Mon Jul  2 10:17:55 2018
Timers Off: Mon Jul  2 10:18:29 2018

Wall Time:       33.63 seconds

JK: (A|mn)                  :      0.017u      0.000s      0.004w      1 calls
JK: (A|Q)^-1/2              :      0.017u      0.000s      0.020w      1 calls
JK: (Q|mn)                  :      0.000u      0.000s      0.000w      1 calls
HF: Form H                  :      0.000u      0.017s      0.003w      1 calls
HF: Form S/X                :      0.017u      0.000s      0.000w      1 calls
HF: Guess                   :      0.033u      0.000s      0.027w      1 calls
SAD Guess                   :      0.033u      0.000s      0.025w      1 calls
HF: Form G                  :      0.000u      0.000s      0.001w      5 calls
JK: D                       :      0.000u      0.000s      0.000w      5 calls
JK: USO2AO                  :      0.000u      0.000s      0.000w      5 calls
JK: JK                      :      0.000u      0.000s      0.001w      5 calls
JK: J                       :      0.000u      0.000s      0.000w      5 calls
JK: J1                      :      0.000u      0.000s      0.000w      5 calls
JK: J2                      :      0.000u      0.000s      0.000w      5 calls
JK: K                       :      0.000u      0.000s      0.000w      5 calls
JK: K1                      :      0.000u      0.000s      0.000w      5 calls
JK: K2                      :      0.000u      0.000s      0.000w      5 calls
JK: AO2USO                  :      0.000u      0.000s      0.000w      5 calls
HF: Form F                  :      0.000u      0.000s      0.000w      5 calls
HF: DIIS                    :      0.000u      0.000s      0.001w      5 calls
DIISManager::add_entry      :      0.000u      0.000s      0.000w      4 calls
DIISManager::extrapolate    :      0.000u      0.000s      0.000w      3 calls
bMatrix setup               :      0.000u      0.000s      0.000w      3 calls
bMatrix pseudoinverse       :      0.000u      0.000s      0.000w      3 calls
New vector                  :      0.000u      0.000s      0.000w      3 calls
HF: Form C                  :      0.000u      0.000s      0.000w      5 calls
HF: Form D                  :      0.000u      0.000s      0.000w      5 calls

-----------------------------------------------------------
JK: (A|mn)                  :      0.017u      0.000s      0.004w      1 calls
JK: (A|Q)^-1/2              :      0.017u      0.000s      0.020w      1 calls
JK: (Q|mn)                  :      0.000u      0.000s      0.000w      1 calls
HF: Form H                  :      0.000u      0.017s      0.003w      1 calls
HF: Form S/X                :      0.017u      0.000s      0.000w      1 calls
HF: Guess                   :      0.033u      0.000s      0.027w      1 calls
| SAD Guess                 :      0.033u      0.000s      0.025w      1 calls
HF: Form G                  :      0.000u      0.000s      0.001w      5 calls
| JK: D                     :      0.000u      0.000s      0.000w      5 calls
| JK: USO2AO                :      0.000u      0.000s      0.000w      5 calls
| JK: JK                    :      0.000u      0.000s      0.001w      5 calls
| | JK: J                   :      0.000u      0.000s      0.000w      5 calls
| | | JK: J1                :      0.000u      0.000s      0.000w      5 calls
| | | JK: J2                :      0.000u      0.000s      0.000w      5 calls
| | JK: K                   :      0.000u      0.000s      0.000w      5 calls
| | | JK: K1                :      0.000u      0.000s      0.000w      5 calls
| | | JK: K2                :      0.000u      0.000s      0.000w      5 calls
| JK: AO2USO                :      0.000u      0.000s      0.000w      5 calls
HF: Form F                  :      0.000u      0.000s      0.000w      5 calls
HF: DIIS                    :      0.000u      0.000s      0.001w      5 calls
| DIISManager::add_entry    :      0.000u      0.000s      0.000w      4 calls
| DIISManager::extrapolate  :      0.000u      0.000s      0.000w      3 calls
| | bMatrix setup           :      0.000u      0.000s      0.000w      3 calls
| | bMatrix pseudoinverse   :      0.000u      0.000s      0.000w      3 calls
| | New vector              :      0.000u      0.000s      0.000w      3 calls
HF: Form C                  :      0.000u      0.000s      0.000w      5 calls
HF: Form D                  :      0.000u      0.000s      0.000w      5 calls

***********************************************************

Host: shannon-book.local

Timers On : Mon Jul  2 10:18:39 2018
Timers Off: Mon Jul  2 10:21:53 2018

Wall Time:      193.99 seconds

JK: (A|mn)                  :      0.000u      0.000s      0.003w      1 calls
JK: (A|Q)^-1/2              :      0.033u      0.000s      0.020w      1 calls
JK: (Q|mn)                  :      0.000u      0.000s      0.000w      1 calls
HF: Form H                  :      0.000u      0.017s      0.003w      1 calls
HF: Form S/X                :      0.000u      0.000s      0.000w      1 calls
HF: Guess                   :      0.033u      0.000s      0.026w      1 calls
SAD Guess                   :      0.033u      0.000s      0.024w      1 calls
HF: Form G                  :      0.000u      0.000s      0.001w      5 calls
JK: D                       :      0.000u      0.000s      0.000w      5 calls
JK: USO2AO                  :      0.000u      0.000s      0.000w      5 calls
JK: JK                      :      0.000u      0.000s      0.001w      5 calls
JK: J                       :      0.000u      0.000s      0.000w      5 calls
JK: J1                      :      0.000u      0.000s      0.000w      5 calls
JK: J2                      :      0.000u      0.000s      0.000w      5 calls
JK: K                       :      0.000u      0.000s      0.000w      5 calls
JK: K1                      :      0.000u      0.000s      0.000w      5 calls
JK: K2                      :      0.000u      0.000s      0.000w      5 calls
JK: AO2USO                  :      0.000u      0.000s      0.000w      5 calls
HF: Form F                  :      0.000u      0.000s      0.000w      5 calls
HF: DIIS                    :      0.000u      0.000s      0.001w      5 calls
DIISManager::add_entry      :      0.000u      0.000s      0.001w      4 calls
DIISManager::extrapolate    :      0.000u      0.000s      0.000w      3 calls
bMatrix setup               :      0.000u      0.000s      0.000w      3 calls
bMatrix pseudoinverse       :      0.000u      0.000s      0.000w      3 calls
New vector                  :      0.000u      0.000s      0.000w      3 calls
HF: Form C                  :      0.000u      0.000s      0.000w      5 calls
HF: Form D                  :      0.000u      0.000s      0.000w      5 calls

-----------------------------------------------------------
JK: (A|mn)                  :      0.000u      0.000s      0.003w      1 calls
JK: (A|Q)^-1/2              :      0.033u      0.000s      0.020w      1 calls
JK: (Q|mn)                  :      0.000u      0.000s      0.000w      1 calls
HF: Form H                  :      0.000u      0.017s      0.003w      1 calls
HF: Form S/X                :      0.000u      0.000s      0.000w      1 calls
HF: Guess                   :      0.033u      0.000s      0.026w      1 calls
| SAD Guess                 :      0.033u      0.000s      0.024w      1 calls
HF: Form G                  :      0.000u      0.000s      0.001w      5 calls
| JK: D                     :      0.000u      0.000s      0.000w      5 calls
| JK: USO2AO                :      0.000u      0.000s      0.000w      5 calls
| JK: JK                    :      0.000u      0.000s      0.001w      5 calls
| | JK: J                   :      0.000u      0.000s      0.000w      5 calls
| | | JK: J1                :      0.000u      0.000s      0.000w      5 calls
| | | JK: J2                :      0.000u      0.000s      0.000w      5 calls
| | JK: K                   :      0.000u      0.000s      0.000w      5 calls
| | | JK: K1                :      0.000u      0.000s      0.000w      5 calls
| | | JK: K2                :      0.000u      0.000s      0.000w      5 calls
| JK: AO2USO                :      0.000u      0.000s      0.000w      5 calls
HF: Form F                  :      0.000u      0.000s      0.000w      5 calls
HF: DIIS                    :      0.000u      0.000s      0.001w      5 calls
| DIISManager::add_entry    :      0.000u      0.000s      0.001w      4 calls
| DIISManager::extrapolate  :      0.000u      0.000s      0.000w      3 calls
| | bMatrix setup           :      0.000u      0.000s      0.000w      3 calls
| | bMatrix pseudoinverse   :      0.000u      0.000s      0.000w      3 calls
| | New vector              :      0.000u      0.000s      0.000w      3 calls
HF: Form C                  :      0.000u      0.000s      0.000w      5 calls
HF: Form D                  :      0.000u      0.000s      0.000w      5 calls

***********************************************************

Host: shannon-book.local

Timers On : Mon Jul  2 10:22:06 2018
Timers Off: Mon Jul  2 10:22:56 2018

Wall Time:       50.10 seconds

JK: (A|mn)                  :      0.000u      0.000s      0.003w      1 calls
JK: (A|Q)^-1/2              :      0.033u      0.000s      0.024w      1 calls
JK: (Q|mn)                  :      0.000u      0.000s      0.000w      1 calls
HF: Form H                  :      0.000u      0.000s      0.005w      1 calls
HF: Form S/X                :      0.000u      0.000s      0.000w      1 calls
HF: Guess                   :      0.050u      0.000s      0.026w      1 calls
SAD Guess                   :      0.033u      0.000s      0.024w      1 calls
HF: Form G                  :      0.000u      0.000s      0.001w      5 calls
JK: D                       :      0.000u      0.000s      0.000w      5 calls
JK: USO2AO                  :      0.000u      0.000s      0.000w      5 calls
JK: JK                      :      0.000u      0.000s      0.001w      5 calls
JK: J                       :      0.000u      0.000s      0.000w      5 calls
JK: J1                      :      0.000u      0.000s      0.000w      5 calls
JK: J2                      :      0.000u      0.000s      0.000w      5 calls
JK: K                       :      0.000u      0.000s      0.000w      5 calls
JK: K1                      :      0.000u      0.000s      0.000w      5 calls
JK: K2                      :      0.000u      0.000s      0.000w      5 calls
JK: AO2USO                  :      0.000u      0.000s      0.000w      5 calls
HF: Form F                  :      0.000u      0.000s      0.000w      5 calls
HF: DIIS                    :      0.000u      0.000s      0.001w      5 calls
DIISManager::add_entry      :      0.000u      0.000s      0.000w      4 calls
DIISManager::extrapolate    :      0.000u      0.000s      0.000w      3 calls
bMatrix setup               :      0.000u      0.000s      0.000w      3 calls
bMatrix pseudoinverse       :      0.000u      0.000s      0.000w      3 calls
New vector                  :      0.000u      0.000s      0.000w      3 calls
HF: Form C                  :      0.000u      0.000s      0.000w      5 calls
HF: Form D                  :      0.000u      0.000s      0.000w      5 calls

-----------------------------------------------------------
JK: (A|mn)                  :      0.000u      0.000s      0.003w      1 calls
JK: (A|Q)^-1/2              :      0.033u      0.000s      0.024w      1 calls
JK: (Q|mn)                  :      0.000u      0.000s      0.000w      1 calls
HF: Form H                  :      0.000u      0.000s      0.005w      1 calls
HF: Form S/X                :      0.000u      0.000s      0.000w      1 calls
HF: Guess                   :      0.050u      0.000s      0.026w      1 calls
| SAD Guess                 :      0.033u      0.000s      0.024w      1 calls
HF: Form G                  :      0.000u      0.000s      0.001w      5 calls
| JK: D                     :      0.000u      0.000s      0.000w      5 calls
| JK: USO2AO                :      0.000u      0.000s      0.000w      5 calls
| JK: JK                    :      0.000u      0.000s      0.001w      5 calls
| | JK: J                   :      0.000u      0.000s      0.000w      5 calls
| | | JK: J1                :      0.000u      0.000s      0.000w      5 calls
| | | JK: J2                :      0.000u      0.000s      0.000w      5 calls
| | JK: K                   :      0.000u      0.000s      0.000w      5 calls
| | | JK: K1                :      0.000u      0.000s      0.000w      5 calls
| | | JK: K2                :      0.000u      0.000s      0.000w      5 calls
| JK: AO2USO                :      0.000u      0.000s      0.000w      5 calls
HF: Form F                  :      0.000u      0.000s      0.000w      5 calls
HF: DIIS                    :      0.000u      0.000s      0.001w      5 calls
| DIISManager::add_entry    :      0.000u      0.000s      0.000w      4 calls
| DIISManager::extrapolate  :      0.000u      0.000s      0.000w      3 calls
| | bMatrix setup           :      0.000u      0.000s      0.000w      3 calls
| | bMatrix pseudoinverse   :      0.000u      0.000s      0.000w      3 calls
| | New vector              :      0.000u      0.000s      0.000w      3 calls
HF: Form C                  :      0.000u      0.000s      0.000w      5 calls
HF: Form D                  :      0.000u      0.000s      0.000w      5 calls

***********************************************************

Host: shannon-book.local

Timers On : Mon Jul  2 10:23:02 2018
Timers Off: Mon Jul  2 10:27:33 2018

Wall Time:      271.23 seconds

JK: (A|mn)                  :      0.033u      0.000s      0.007w      2 calls
JK: (A|Q)^-1/2              :      0.050u      0.017s      0.039w      2 calls
JK: (Q|mn)                  :      0.000u      0.000s      0.000w      2 calls
HF: Form H                  :      0.000u      0.000s      0.006w      2 calls
HF: Form S/X                :      0.000u      0.000s      0.001w      2 calls
HF: Guess                   :      0.083u      0.000s      0.053w      2 calls
SAD Guess                   :      0.083u      0.000s      0.049w      2 calls
HF: Form G                  :      0.000u      0.000s      0.002w     10 calls
JK: D                       :      0.000u      0.000s      0.000w     10 calls
JK: USO2AO                  :      0.000u      0.000s      0.000w     10 calls
JK: JK                      :      0.000u      0.000s      0.001w     10 calls
JK: J                       :      0.000u      0.000s      0.000w     10 calls
JK: J1                      :      0.000u      0.000s      0.000w     10 calls
JK: J2                      :      0.000u      0.000s      0.000w     10 calls
JK: K                       :      0.000u      0.000s      0.001w     10 calls
JK: K1                      :      0.000u      0.000s      0.001w     10 calls
JK: K2                      :      0.000u      0.000s      0.000w     10 calls
JK: AO2USO                  :      0.000u      0.000s      0.000w     10 calls
HF: Form F                  :      0.000u      0.000s      0.000w     10 calls
HF: DIIS                    :      0.000u      0.000s      0.001w     10 calls
DIISManager::add_entry      :      0.000u      0.000s      0.001w      8 calls
DIISManager::extrapolate    :      0.000u      0.000s      0.000w      6 calls
bMatrix setup               :      0.000u      0.000s      0.000w      6 calls
bMatrix pseudoinverse       :      0.000u      0.000s      0.000w      6 calls
New vector                  :      0.000u      0.000s      0.000w      6 calls
HF: Form C                  :      0.000u      0.000s      0.000w     10 calls
HF: Form D                  :      0.000u      0.000s      0.000w     10 calls

-----------------------------------------------------------
JK: (A|mn)                  :      0.033u      0.000s      0.007w      2 calls
JK: (A|Q)^-1/2              :      0.050u      0.017s      0.039w      2 calls
JK: (Q|mn)                  :      0.000u      0.000s      0.000w      2 calls
HF: Form H                  :      0.000u      0.000s      0.006w      2 calls
HF: Form S/X                :      0.000u      0.000s      0.001w      2 calls
HF: Guess                   :      0.083u      0.000s      0.053w      2 calls
| SAD Guess                 :      0.083u      0.000s      0.049w      2 calls
HF: Form G                  :      0.000u      0.000s      0.002w     10 calls
| JK: D                     :      0.000u      0.000s      0.000w     10 calls
| JK: USO2AO                :      0.000u      0.000s      0.000w     10 calls
| JK: JK                    :      0.000u      0.000s      0.001w     10 calls
| | JK: J                   :      0.000u      0.000s      0.000w     10 calls
| | | JK: J1                :      0.000u      0.000s      0.000w     10 calls
| | | JK: J2                :      0.000u      0.000s      0.000w     10 calls
| | JK: K                   :      0.000u      0.000s      0.001w     10 calls
| | | JK: K1                :      0.000u      0.000s      0.001w     10 calls
| | | JK: K2                :      0.000u      0.000s      0.000w     10 calls
| JK: AO2USO                :      0.000u      0.000s      0.000w     10 calls
HF: Form F                  :      0.000u      0.000s      0.000w     10 calls
HF: DIIS                    :      0.000u      0.000s      0.001w     10 calls
| DIISManager::add_entry    :      0.000u      0.000s      0.001w      8 calls
| DIISManager::extrapolate  :      0.000u      0.000s      0.000w      6 calls
| | bMatrix setup           :      0.000u      0.000s      0.000w      6 calls
| | bMatrix pseudoinverse   :      0.000u      0.000s      0.000w      6 calls
| | New vector              :      0.000u      0.000s      0.000w      6 calls
HF: Form C                  :      0.000u      0.000s      0.000w     10 calls
HF: Form D                  :      0.000u      0.000s      0.000w     10 calls

***********************************************************

Host: shannon-book.local

Timers On : Mon Jul  2 10:27:39 2018
Timers Off: Mon Jul  2 10:35:44 2018

Wall Time:      485.05 seconds

JK: (A|mn)                  :      0.083u      0.000s      0.045w     13 calls
JK: (A|Q)^-1/2              :      0.350u      0.000s      0.267w     13 calls
JK: (Q|mn)                  :      0.000u      0.000s      0.002w     13 calls
HF: Form H                  :      0.000u      0.017s      0.061w     13 calls
HF: Form S/X                :      0.017u      0.000s      0.003w     13 calls
HF: Guess                   :      0.550u      0.017s      0.343w     13 calls
SAD Guess                   :      0.483u      0.017s      0.313w     13 calls
HF: Form G                  :      0.000u      0.000s      0.014w     65 calls
JK: D                       :      0.000u      0.000s      0.000w     65 calls
JK: USO2AO                  :      0.000u      0.000s      0.001w     65 calls
JK: JK                      :      0.000u      0.000s      0.011w     65 calls
JK: J                       :      0.000u      0.000s      0.001w     65 calls
JK: J1                      :      0.000u      0.000s      0.001w     65 calls
JK: J2                      :      0.000u      0.000s      0.000w     65 calls
JK: K                       :      0.000u      0.000s      0.008w     65 calls
JK: K1                      :      0.000u      0.000s      0.006w     65 calls
JK: K2                      :      0.000u      0.000s      0.002w     65 calls
JK: AO2USO                  :      0.000u      0.000s      0.000w     65 calls
HF: Form F                  :      0.000u      0.000s      0.000w     65 calls
HF: DIIS                    :      0.000u      0.000s      0.011w     65 calls
DIISManager::add_entry      :      0.000u      0.000s      0.008w     52 calls
DIISManager::extrapolate    :      0.000u      0.000s      0.002w     39 calls
bMatrix setup               :      0.000u      0.000s      0.000w     39 calls
bMatrix pseudoinverse       :      0.000u      0.000s      0.001w     39 calls
New vector                  :      0.000u      0.000s      0.000w     39 calls
HF: Form C                  :      0.000u      0.000s      0.002w     65 calls
HF: Form D                  :      0.000u      0.000s      0.000w     65 calls

-----------------------------------------------------------
JK: (A|mn)                  :      0.083u      0.000s      0.045w     13 calls
JK: (A|Q)^-1/2              :      0.350u      0.000s      0.267w     13 calls
JK: (Q|mn)                  :      0.000u      0.000s      0.002w     13 calls
HF: Form H                  :      0.000u      0.017s      0.061w     13 calls
HF: Form S/X                :      0.017u      0.000s      0.003w     13 calls
HF: Guess                   :      0.550u      0.017s      0.343w     13 calls
| SAD Guess                 :      0.483u      0.017s      0.313w     13 calls
HF: Form G                  :      0.000u      0.000s      0.014w     65 calls
| JK: D                     :      0.000u      0.000s      0.000w     65 calls
| JK: USO2AO                :      0.000u      0.000s      0.001w     65 calls
| JK: JK                    :      0.000u      0.000s      0.011w     65 calls
| | JK: J                   :      0.000u      0.000s      0.001w     65 calls
| | | JK: J1                :      0.000u      0.000s      0.001w     65 calls
| | | JK: J2                :      0.000u      0.000s      0.000w     65 calls
| | JK: K                   :      0.000u      0.000s      0.008w     65 calls
| | | JK: K1                :      0.000u      0.000s      0.006w     65 calls
| | | JK: K2                :      0.000u      0.000s      0.002w     65 calls
| JK: AO2USO                :      0.000u      0.000s      0.000w     65 calls
HF: Form F                  :      0.000u      0.000s      0.000w     65 calls
HF: DIIS                    :      0.000u      0.000s      0.011w     65 calls
| DIISManager::add_entry    :      0.000u      0.000s      0.008w     52 calls
| DIISManager::extrapolate  :      0.000u      0.000s      0.002w     39 calls
| | bMatrix setup           :      0.000u      0.000s      0.000w     39 calls
| | bMatrix pseudoinverse   :      0.000u      0.000s      0.001w     39 calls
| | New vector              :      0.000u      0.000s      0.000w     39 calls
HF: Form C                  :      0.000u      0.000s      0.002w     65 calls
HF: Form D                  :      0.000u      0.000s      0.000w     65 calls

***********************************************************

Host: shannon-book.local

Timers On : Mon Jul  2 10:35:55 2018
Timers Off: Mon Jul  2 10:38:45 2018

Wall Time:      169.17 seconds

JK: (A|mn)                  :      0.017u      0.000s      0.003w      1 calls
JK: (A|Q)^-1/2              :      0.017u      0.017s      0.020w      1 calls
JK: (Q|mn)                  :      0.000u      0.000s      0.000w      1 calls
HF: Form H                  :      0.000u      0.000s      0.005w      1 calls
HF: Form S/X                :      0.000u      0.000s      0.000w      1 calls
HF: Guess                   :      0.050u      0.000s      0.027w      1 calls
SAD Guess                   :      0.050u      0.000s      0.024w      1 calls
HF: Form G                  :      0.000u      0.000s      0.001w      5 calls
JK: D                       :      0.000u      0.000s      0.000w      5 calls
JK: USO2AO                  :      0.000u      0.000s      0.000w      5 calls
JK: JK                      :      0.000u      0.000s      0.001w      5 calls
JK: J                       :      0.000u      0.000s      0.000w      5 calls
JK: J1                      :      0.000u      0.000s      0.000w      5 calls
JK: J2                      :      0.000u      0.000s      0.000w      5 calls
JK: K                       :      0.000u      0.000s      0.001w      5 calls
JK: K1                      :      0.000u      0.000s      0.000w      5 calls
JK: K2                      :      0.000u      0.000s      0.000w      5 calls
JK: AO2USO                  :      0.000u      0.000s      0.000w      5 calls
HF: Form F                  :      0.000u      0.000s      0.000w      5 calls
HF: DIIS                    :      0.000u      0.000s      0.001w      5 calls
DIISManager::add_entry      :      0.000u      0.000s      0.000w      4 calls
DIISManager::extrapolate    :      0.000u      0.000s      0.001w      3 calls
bMatrix setup               :      0.000u      0.000s      0.000w      3 calls
bMatrix pseudoinverse       :      0.000u      0.000s      0.000w      3 calls
New vector                  :      0.000u      0.000s      0.001w      3 calls
HF: Form C                  :      0.000u      0.000s      0.000w      5 calls
HF: Form D                  :      0.000u      0.000s      0.000w      5 calls

-----------------------------------------------------------
JK: (A|mn)                  :      0.017u      0.000s      0.003w      1 calls
JK: (A|Q)^-1/2              :      0.017u      0.017s      0.020w      1 calls
JK: (Q|mn)                  :      0.000u      0.000s      0.000w      1 calls
HF: Form H                  :      0.000u      0.000s      0.005w      1 calls
HF: Form S/X                :      0.000u      0.000s      0.000w      1 calls
HF: Guess                   :      0.050u      0.000s      0.027w      1 calls
| SAD Guess                 :      0.050u      0.000s      0.024w      1 calls
HF: Form G                  :      0.000u      0.000s      0.001w      5 calls
| JK: D                     :      0.000u      0.000s      0.000w      5 calls
| JK: USO2AO                :      0.000u      0.000s      0.000w      5 calls
| JK: JK                    :      0.000u      0.000s      0.001w      5 calls
| | JK: J                   :      0.000u      0.000s      0.000w      5 calls
| | | JK: J1                :      0.000u      0.000s      0.000w      5 calls
| | | JK: J2                :      0.000u      0.000s      0.000w      5 calls
| | JK: K                   :      0.000u      0.000s      0.001w      5 calls
| | | JK: K1                :      0.000u      0.000s      0.000w      5 calls
| | | JK: K2                :      0.000u      0.000s      0.000w      5 calls
| JK: AO2USO                :      0.000u      0.000s      0.000w      5 calls
HF: Form F                  :      0.000u      0.000s      0.000w      5 calls
HF: DIIS                    :      0.000u      0.000s      0.001w      5 calls
| DIISManager::add_entry    :      0.000u      0.000s      0.000w      4 calls
| DIISManager::extrapolate  :      0.000u      0.000s      0.001w      3 calls
| | bMatrix setup           :      0.000u      0.000s      0.000w      3 calls
| | bMatrix pseudoinverse   :      0.000u      0.000s      0.000w      3 calls
| | New vector              :      0.000u      0.000s      0.001w      3 calls
HF: Form C                  :      0.000u      0.000s      0.000w      5 calls
HF: Form D                  :      0.000u      0.000s      0.000w      5 calls

***********************************************************

Host: shannon-book.local

Timers On : Mon Jul  2 10:38:48 2018
Timers Off: Mon Jul  2 10:44:08 2018

Wall Time:      319.58 seconds

JK: (A|mn)                  :      0.017u      0.000s      0.003w      1 calls
JK: (A|Q)^-1/2              :      0.017u      0.000s      0.019w      1 calls
JK: (Q|mn)                  :      0.000u      0.000s      0.000w      1 calls
HF: Form H                  :      0.000u      0.017s      0.003w      1 calls
HF: Form S/X                :      0.000u      0.000s      0.000w      1 calls
HF: Guess                   :      0.050u      0.000s      0.027w      1 calls
SAD Guess                   :      0.050u      0.000s      0.025w      1 calls
HF: Form G                  :      0.000u      0.000s      0.001w      5 calls
JK: D                       :      0.000u      0.000s      0.000w      5 calls
JK: USO2AO                  :      0.000u      0.000s      0.000w      5 calls
JK: JK                      :      0.000u      0.000s      0.001w      5 calls
JK: J                       :      0.000u      0.000s      0.000w      5 calls
JK: J1                      :      0.000u      0.000s      0.000w      5 calls
JK: J2                      :      0.000u      0.000s      0.000w      5 calls
JK: K                       :      0.000u      0.000s      0.001w      5 calls
JK: K1                      :      0.000u      0.000s      0.000w      5 calls
JK: K2                      :      0.000u      0.000s      0.000w      5 calls
JK: AO2USO                  :      0.000u      0.000s      0.000w      5 calls
HF: Form F                  :      0.000u      0.000s      0.000w      5 calls
HF: DIIS                    :      0.000u      0.000s      0.001w      5 calls
DIISManager::add_entry      :      0.000u      0.000s      0.001w      4 calls
DIISManager::extrapolate    :      0.000u      0.000s      0.000w      3 calls
bMatrix setup               :      0.000u      0.000s      0.000w      3 calls
bMatrix pseudoinverse       :      0.000u      0.000s      0.000w      3 calls
New vector                  :      0.000u      0.000s      0.000w      3 calls
HF: Form C                  :      0.000u      0.000s      0.000w      5 calls
HF: Form D                  :      0.000u      0.000s      0.000w      5 calls

-----------------------------------------------------------
JK: (A|mn)                  :      0.017u      0.000s      0.003w      1 calls
JK: (A|Q)^-1/2              :      0.017u      0.000s      0.019w      1 calls
JK: (Q|mn)                  :      0.000u      0.000s      0.000w      1 calls
HF: Form H                  :      0.000u      0.017s      0.003w      1 calls
HF: Form S/X                :      0.000u      0.000s      0.000w      1 calls
HF: Guess                   :      0.050u      0.000s      0.027w      1 calls
| SAD Guess                 :      0.050u      0.000s      0.025w      1 calls
HF: Form G                  :      0.000u      0.000s      0.001w      5 calls
| JK: D                     :      0.000u      0.000s      0.000w      5 calls
| JK: USO2AO                :      0.000u      0.000s      0.000w      5 calls
| JK: JK                    :      0.000u      0.000s      0.001w      5 calls
| | JK: J                   :      0.000u      0.000s      0.000w      5 calls
| | | JK: J1                :      0.000u      0.000s      0.000w      5 calls
| | | JK: J2                :      0.000u      0.000s      0.000w      5 calls
| | JK: K                   :      0.000u      0.000s      0.001w      5 calls
| | | JK: K1                :      0.000u      0.000s      0.000w      5 calls
| | | JK: K2                :      0.000u      0.000s      0.000w      5 calls
| JK: AO2USO                :      0.000u      0.000s      0.000w      5 calls
HF: Form F                  :      0.000u      0.000s      0.000w      5 calls
HF: DIIS                    :      0.000u      0.000s      0.001w      5 calls
| DIISManager::add_entry    :      0.000u      0.000s      0.001w      4 calls
| DIISManager::extrapolate  :      0.000u      0.000s      0.000w      3 calls
| | bMatrix setup           :      0.000u      0.000s      0.000w      3 calls
| | bMatrix pseudoinverse   :      0.000u      0.000s      0.000w      3 calls
| | New vector              :      0.000u      0.000s      0.000w      3 calls
HF: Form C                  :      0.000u      0.000s      0.000w      5 calls
HF: Form D                  :      0.000u      0.000s      0.000w      5 calls

***********************************************************

Host: shannon-book.local

Timers On : Mon Jul  2 10:44:13 2018
Timers Off: Mon Jul  2 11:04:57 2018

Wall Time:     1243.76 seconds

JK: (A|mn)                  :      0.067u      0.000s      0.020w      6 calls
JK: (A|Q)^-1/2              :      0.117u      0.017s      0.112w      6 calls
JK: (Q|mn)                  :      0.000u      0.000s      0.001w      6 calls
HF: Form H                  :      0.000u      0.017s      0.020w      6 calls
HF: Form S/X                :      0.000u      0.000s      0.001w      6 calls
HF: Guess                   :      0.300u      0.017s      0.167w      6 calls
SAD Guess                   :      0.267u      0.017s      0.154w      6 calls
HF: Form G                  :      0.000u      0.000s      0.005w     30 calls
JK: D                       :      0.000u      0.000s      0.000w     30 calls
JK: USO2AO                  :      0.000u      0.000s      0.000w     30 calls
JK: JK                      :      0.000u      0.000s      0.005w     30 calls
JK: J                       :      0.000u      0.000s      0.000w     30 calls
JK: J1                      :      0.000u      0.000s      0.000w     30 calls
JK: J2                      :      0.000u      0.000s      0.000w     30 calls
JK: K                       :      0.000u      0.000s      0.003w     30 calls
JK: K1                      :      0.000u      0.000s      0.002w     30 calls
JK: K2                      :      0.000u      0.000s      0.001w     30 calls
JK: AO2USO                  :      0.000u      0.000s      0.000w     30 calls
HF: Form F                  :      0.000u      0.000s      0.000w     30 calls
HF: DIIS                    :      0.000u      0.000s      0.005w     30 calls
DIISManager::add_entry      :      0.000u      0.000s      0.003w     24 calls
DIISManager::extrapolate    :      0.000u      0.000s      0.001w     18 calls
bMatrix setup               :      0.000u      0.000s      0.000w     18 calls
bMatrix pseudoinverse       :      0.000u      0.000s      0.000w     18 calls
New vector                  :      0.000u      0.000s      0.000w     18 calls
HF: Form C                  :      0.000u      0.000s      0.001w     30 calls
HF: Form D                  :      0.000u      0.000s      0.000w     30 calls

-----------------------------------------------------------
JK: (A|mn)                  :      0.067u      0.000s      0.020w      6 calls
JK: (A|Q)^-1/2              :      0.117u      0.017s      0.112w      6 calls
JK: (Q|mn)                  :      0.000u      0.000s      0.001w      6 calls
HF: Form H                  :      0.000u      0.017s      0.020w      6 calls
HF: Form S/X                :      0.000u      0.000s      0.001w      6 calls
HF: Guess                   :      0.300u      0.017s      0.167w      6 calls
| SAD Guess                 :      0.267u      0.017s      0.154w      6 calls
HF: Form G                  :      0.000u      0.000s      0.005w     30 calls
| JK: D                     :      0.000u      0.000s      0.000w     30 calls
| JK: USO2AO                :      0.000u      0.000s      0.000w     30 calls
| JK: JK                    :      0.000u      0.000s      0.005w     30 calls
| | JK: J                   :      0.000u      0.000s      0.000w     30 calls
| | | JK: J1                :      0.000u      0.000s      0.000w     30 calls
| | | JK: J2                :      0.000u      0.000s      0.000w     30 calls
| | JK: K                   :      0.000u      0.000s      0.003w     30 calls
| | | JK: K1                :      0.000u      0.000s      0.002w     30 calls
| | | JK: K2                :      0.000u      0.000s      0.001w     30 calls
| JK: AO2USO                :      0.000u      0.000s      0.000w     30 calls
HF: Form F                  :      0.000u      0.000s      0.000w     30 calls
HF: DIIS                    :      0.000u      0.000s      0.005w     30 calls
| DIISManager::add_entry    :      0.000u      0.000s      0.003w     24 calls
| DIISManager::extrapolate  :      0.000u      0.000s      0.001w     18 calls
| | bMatrix setup           :      0.000u      0.000s      0.000w     18 calls
| | bMatrix pseudoinverse   :      0.000u      0.000s      0.000w     18 calls
| | New vector              :      0.000u      0.000s      0.000w     18 calls
HF: Form C                  :      0.000u      0.000s      0.001w     30 calls
HF: Form D                  :      0.000u      0.000s      0.000w     30 calls

***********************************************************

Host: shannon-book.local

Timers On : Mon Jul  2 11:05:03 2018
Timers Off: Mon Jul  2 11:58:09 2018

Wall Time:     3185.78 seconds

JK: (A|mn)                  :      0.300u      0.000s      0.179w     46 calls
JK: (A|Q)^-1/2              :      1.183u      0.017s      0.883w     46 calls
JK: (Q|mn)                  :      0.017u      0.000s      0.006w     46 calls
HF: Form H                  :      0.000u      0.100s      0.177w     46 calls
HF: Form S/X                :      0.000u      0.000s      0.008w     46 calls
HF: Guess                   :      2.017u      0.033s      1.320w     46 calls
SAD Guess                   :      1.833u      0.033s      1.219w     46 calls
HF: Form G                  :      0.050u      0.000s      0.054w    230 calls
JK: D                       :      0.000u      0.000s      0.002w    230 calls
JK: USO2AO                  :      0.000u      0.000s      0.001w    230 calls
JK: JK                      :      0.033u      0.000s      0.047w    230 calls
JK: J                       :      0.000u      0.000s      0.006w    230 calls
JK: J1                      :      0.000u      0.000s      0.003w    230 calls
JK: J2                      :      0.000u      0.000s      0.002w    230 calls
JK: K                       :      0.033u      0.000s      0.033w    230 calls
JK: K1                      :      0.017u      0.000s      0.020w    230 calls
JK: K2                      :      0.017u      0.000s      0.012w    230 calls
JK: AO2USO                  :      0.000u      0.000s      0.000w    230 calls
HF: Form F                  :      0.000u      0.000s      0.001w    230 calls
HF: DIIS                    :      0.017u      0.033s      0.043w    230 calls
DIISManager::add_entry      :      0.000u      0.033s      0.031w    184 calls
DIISManager::extrapolate    :      0.000u      0.000s      0.007w    138 calls
bMatrix setup               :      0.000u      0.000s      0.002w    138 calls
bMatrix pseudoinverse       :      0.000u      0.000s      0.003w    138 calls
New vector                  :      0.000u      0.000s      0.002w    138 calls
HF: Form C                  :      0.050u      0.000s      0.012w    230 calls
HF: Form D                  :      0.000u      0.000s      0.002w    230 calls

-----------------------------------------------------------
JK: (A|mn)                  :      0.300u      0.000s      0.179w     46 calls
JK: (A|Q)^-1/2              :      1.183u      0.017s      0.883w     46 calls
JK: (Q|mn)                  :      0.017u      0.000s      0.006w     46 calls
HF: Form H                  :      0.000u      0.100s      0.177w     46 calls
HF: Form S/X                :      0.000u      0.000s      0.008w     46 calls
HF: Guess                   :      2.017u      0.033s      1.320w     46 calls
| SAD Guess                 :      1.833u      0.033s      1.219w     46 calls
HF: Form G                  :      0.050u      0.000s      0.054w    230 calls
| JK: D                     :      0.000u      0.000s      0.002w    230 calls
| JK: USO2AO                :      0.000u      0.000s      0.001w    230 calls
| JK: JK                    :      0.033u      0.000s      0.047w    230 calls
| | JK: J                   :      0.000u      0.000s      0.006w    230 calls
| | | JK: J1                :      0.000u      0.000s      0.003w    230 calls
| | | JK: J2                :      0.000u      0.000s      0.002w    230 calls
| | JK: K                   :      0.033u      0.000s      0.033w    230 calls
| | | JK: K1                :      0.017u      0.000s      0.020w    230 calls
| | | JK: K2                :      0.017u      0.000s      0.012w    230 calls
| JK: AO2USO                :      0.000u      0.000s      0.000w    230 calls
HF: Form F                  :      0.000u      0.000s      0.001w    230 calls
HF: DIIS                    :      0.017u      0.033s      0.043w    230 calls
| DIISManager::add_entry    :      0.000u      0.033s      0.031w    184 calls
| DIISManager::extrapolate  :      0.000u      0.000s      0.007w    138 calls
| | bMatrix setup           :      0.000u      0.000s      0.002w    138 calls
| | bMatrix pseudoinverse   :      0.000u      0.000s      0.003w    138 calls
| | New vector              :      0.000u      0.000s      0.002w    138 calls
HF: Form C                  :      0.050u      0.000s      0.012w    230 calls
HF: Form D                  :      0.000u      0.000s      0.002w    230 calls

***********************************************************

Host: shannon-book.local

Timers On : Mon Jul  2 11:58:19 2018
Timers Off: Mon Jul  2 14:06:44 2018

Wall Time:     4000.23 seconds

JK: (A|mn)                  :      0.183u      0.000s      0.134w     36 calls
JK: (A|Q)^-1/2              :      0.850u      0.000s      0.650w     36 calls
JK: (Q|mn)                  :      0.017u      0.017s      0.004w     36 calls
HF: Form H                  :      0.033u      0.067s      0.257w     68 calls
HF: Form S/X                :      0.017u      0.033s      0.026w     68 calls
HF: Guess                   :      3.450u      0.150s      2.251w     68 calls
SAD Guess                   :      3.183u      0.117s      2.051w     68 calls
HF: Form G                  :      0.133u      0.017s      0.066w    406 calls
JK: D                       :      0.033u      0.000s      0.005w    406 calls
JK: USO2AO                  :      0.000u      0.000s      0.003w    406 calls
JK: JK                      :      0.067u      0.000s      0.047w    406 calls
JK: J                       :      0.017u      0.000s      0.005w    196 calls
JK: J1                      :      0.017u      0.000s      0.002w    196 calls
JK: J2                      :      0.000u      0.000s      0.001w    196 calls
JK: K                       :      0.050u      0.000s      0.029w    196 calls
JK: K1                      :      0.050u      0.000s      0.020w    196 calls
JK: K2                      :      0.000u      0.000s      0.008w    196 calls
PK computes JK              :      0.000u      0.000s      0.004w    210 calls
JK: AO2USO                  :      0.000u      0.000s      0.000w    406 calls
HF: Form F                  :      0.000u      0.000s      0.001w    406 calls
HF: DIIS                    :      0.050u      0.100s      0.094w    406 calls
DIISManager::add_entry      :      0.017u      0.050s      0.057w    338 calls
DIISManager::extrapolate    :      0.017u      0.050s      0.024w    270 calls
bMatrix setup               :      0.000u      0.017s      0.006w    270 calls
bMatrix pseudoinverse       :      0.017u      0.000s      0.008w    270 calls
New vector                  :      0.000u      0.033s      0.008w    270 calls
HF: Form C                  :      0.033u      0.000s      0.033w    406 calls
HF: Form D                  :      0.000u      0.000s      0.006w    406 calls
Total PK formation time     :      0.583u      0.000s      0.368w     32 calls
CIWave: CIvect write        :      0.000u      0.000s      0.003w    266 calls
CIWave: CIvect read         :      0.000u      0.017s      0.002w    716 calls
CIWave: s2                  :      0.000u      0.000s      0.001w    144 calls
CIWave: s3                  :      0.000u      0.000s      0.005w    216 calls
CIWave: s3_mt               :      0.000u      0.000s      0.002w   1260 calls
CIWave: s1                  :      0.000u      0.000s      0.000w    108 calls

-----------------------------------------------------------
JK: (A|mn)                  :      0.183u      0.000s      0.134w     36 calls
JK: (A|Q)^-1/2              :      0.850u      0.000s      0.650w     36 calls
JK: (Q|mn)                  :      0.017u      0.017s      0.004w     36 calls
HF: Form H                  :      0.033u      0.067s      0.257w     68 calls
HF: Form S/X                :      0.017u      0.033s      0.026w     68 calls
HF: Guess                   :      3.450u      0.150s      2.251w     68 calls
| SAD Guess                 :      3.183u      0.117s      2.051w     68 calls
HF: Form G                  :      0.133u      0.017s      0.066w    406 calls
| JK: D                     :      0.033u      0.000s      0.005w    406 calls
| JK: USO2AO                :      0.000u      0.000s      0.003w    406 calls
| JK: JK                    :      0.067u      0.000s      0.047w    406 calls
| | JK: J                   :      0.017u      0.000s      0.005w    196 calls
| | | JK: J1                :      0.017u      0.000s      0.002w    196 calls
| | | JK: J2                :      0.000u      0.000s      0.001w    196 calls
| | JK: K                   :      0.050u      0.000s      0.029w    196 calls
| | | JK: K1                :      0.050u      0.000s      0.020w    196 calls
| | | JK: K2                :      0.000u      0.000s      0.008w    196 calls
| | PK computes JK          :      0.000u      0.000s      0.004w    210 calls
| JK: AO2USO                :      0.000u      0.000s      0.000w    406 calls
HF: Form F                  :      0.000u      0.000s      0.001w    406 calls
HF: DIIS                    :      0.050u      0.100s      0.094w    406 calls
| DIISManager::add_entry    :      0.017u      0.050s      0.057w    338 calls
| DIISManager::extrapolate  :      0.017u      0.050s      0.024w    270 calls
| | bMatrix setup           :      0.000u      0.017s      0.006w    270 calls
| | bMatrix pseudoinverse   :      0.017u      0.000s      0.008w    270 calls
| | New vector              :      0.000u      0.033s      0.008w    270 calls
HF: Form C                  :      0.033u      0.000s      0.033w    406 calls
HF: Form D                  :      0.000u      0.000s      0.006w    406 calls
Total PK formation time     :      0.583u      0.000s      0.368w     32 calls
CIWave: CIvect write        :      0.000u      0.000s      0.003w    266 calls
CIWave: CIvect read         :      0.000u      0.017s      0.002w    716 calls
CIWave: s2                  :      0.000u      0.000s      0.001w    144 calls
CIWave: s3                  :      0.000u      0.000s      0.005w    216 calls
| CIWave: s3_mt             :      0.000u      0.000s      0.002w   1260 calls
CIWave: s1                  :      0.000u      0.000s      0.000w    108 calls

***********************************************************

Host: shannon-book.local

Timers On : Mon Jul  2 14:07:13 2018
Timers Off: Mon Jul  2 14:13:07 2018

Wall Time:      354.19 seconds

JK: (A|mn)                  :      0.033u      0.000s      0.003w      2 calls
JK: (A|Q)^-1/2              :      0.033u      0.000s      0.031w      2 calls
JK: (Q|mn)                  :      0.000u      0.000s      0.000w      2 calls
HF: Form H                  :      0.000u      0.000s      0.015w      4 calls
HF: Form S/X                :      0.017u      0.000s      0.002w      4 calls
HF: Guess                   :      0.300u      0.017s      0.204w      4 calls
SAD Guess                   :      0.300u      0.017s      0.190w      4 calls
HF: Form G                  :      0.000u      0.000s      0.003w     32 calls
JK: D                       :      0.000u      0.000s      0.000w     32 calls
JK: USO2AO                  :      0.000u      0.000s      0.000w     32 calls
JK: JK                      :      0.000u      0.000s      0.001w     32 calls
JK: J                       :      0.000u      0.000s      0.000w     14 calls
JK: J1                      :      0.000u      0.000s      0.000w     14 calls
JK: J2                      :      0.000u      0.000s      0.000w     14 calls
JK: K                       :      0.000u      0.000s      0.001w     14 calls
[...]
Host: shannon-book.local

Timers On : Tue Oct  2 14:33:45 2018
Timers Off: Tue Oct  2 14:33:46 2018

Wall Time:        1.07 seconds

Total PK formation time     :      0.017u      0.000s      0.012w      1 calls
HF: Form H                  :      0.000u      0.000s      0.006w      1 calls
HF: Form S/X                :      0.000u      0.000s      0.000w      1 calls
HF: Guess                   :      0.000u      0.000s      0.000w      1 calls
HF: Form G                  :      0.000u      0.000s      0.001w     13 calls
JK: D                       :      0.000u      0.000s      0.000w     13 calls
JK: USO2AO                  :      0.000u      0.000s      0.000w     13 calls
JK: JK                      :      0.000u      0.000s      0.001w     13 calls
PK computes JK              :      0.000u      0.000s      0.001w     13 calls
JK: AO2USO                  :      0.000u      0.000s      0.000w     13 calls
HF: Form F                  :      0.000u      0.000s      0.000w     13 calls
HF: DIIS                    :      0.000u      0.000s      0.000w     13 calls
HF: Form C                  :      0.000u      0.000s      0.001w     13 calls
HF: Form D                  :      0.000u      0.000s      0.000w     13 calls

-----------------------------------------------------------
Total PK formation time     :      0.017u      0.000s      0.012w      1 calls
HF: Form H                  :      0.000u      0.000s      0.006w      1 calls
HF: Form S/X                :      0.000u      0.000s      0.000w      1 calls
HF: Guess                   :      0.000u      0.000s      0.000w      1 calls
HF: Form G                  :      0.000u      0.000s      0.001w     13 calls
| JK: D                     :      0.000u      0.000s      0.000w     13 calls
| JK: USO2AO                :      0.000u      0.000s      0.000w     13 calls
| JK: JK                    :      0.000u      0.000s      0.001w     13 calls
| | PK computes JK          :      0.000u      0.000s      0.001w     13 calls
| JK: AO2USO                :      0.000u      0.000s      0.000w     13 calls
HF: Form F                  :      0.000u      0.000s      0.000w     13 calls
HF: DIIS                    :      0.000u      0.000s      0.000w     13 calls
HF: Form C                  :      0.000u      0.000s      0.001w     13 calls
HF: Form D                  :      0.000u      0.000s      0.000w     13 calls

***********************************************************

Host: shannon-book.local

Timers On : Tue Oct  2 14:46:06 2018
Timers Off: Tue Oct  2 14:46:08 2018

Wall Time:        1.06 seconds

Total PK formation time     :      0.033u      0.000s      0.012w      1 calls
HF: Form H                  :      0.000u      0.000s      0.005w      1 calls
HF: Form S/X                :      0.000u      0.000s      0.000w      1 calls
HF: Guess                   :      0.000u      0.000s      0.000w      1 calls
HF: Form G                  :      0.000u      0.000s      0.003w     13 calls
JK: D                       :      0.000u      0.000s      0.000w     13 calls
JK: USO2AO                  :      0.000u      0.000s      0.000w     13 calls
JK: JK                      :      0.000u      0.000s      0.001w     13 calls
PK computes JK              :      0.000u      0.000s      0.001w     13 calls
JK: AO2USO                  :      0.000u      0.000s      0.000w     13 calls
HF: Form F                  :      0.000u      0.000s      0.000w     13 calls
HF: DIIS                    :      0.000u      0.000s      0.000w     13 calls
HF: Form C                  :      0.000u      0.000s      0.001w     13 calls
HF: Form D                  :      0.000u      0.000s      0.000w     13 calls

-----------------------------------------------------------
Total PK formation time     :      0.033u      0.000s      0.012w      1 calls
HF: Form H                  :      0.000u      0.000s      0.005w      1 calls
HF: Form S/X                :      0.000u      0.000s      0.000w      1 calls
HF: Guess                   :      0.000u      0.000s      0.000w      1 calls
HF: Form G                  :      0.000u      0.000s      0.003w     13 calls
| JK: D                     :      0.000u      0.000s      0.000w     13 calls
| JK: USO2AO                :      0.000u      0.000s      0.000w     13 calls
| JK: JK                    :      0.000u      0.000s      0.001w     13 calls
| | PK computes JK          :      0.000u      0.000s      0.001w     13 calls
| JK: AO2USO                :      0.000u      0.000s      0.000w     13 calls
HF: Form F                  :      0.000u      0.000s      0.000w     13 calls
HF: DIIS                    :      0.000u      0.000s      0.000w     13 calls
HF: Form C                  :      0.000u      0.000s      0.001w     13 calls
HF: Form D                  :      0.000u      0.000s      0.000w     13 calls

***********************************************************

Host: shannon-book.local

Timers On : Tue Oct  2 14:46:18 2018
Timers Off: Tue Oct  2 14:46:19 2018

Wall Time:        1.08 seconds

Total PK formation time     :      0.017u      0.000s      0.012w      1 calls
HF: Form H                  :      0.000u      0.000s      0.005w      1 calls
HF: Form S/X                :      0.000u      0.000s      0.000w      1 calls
HF: Guess                   :      0.000u      0.000s      0.000w      1 calls
HF: Form G                  :      0.017u      0.000s      0.001w     13 calls
JK: D                       :      0.000u      0.000s      0.000w     13 calls
JK: USO2AO                  :      0.000u      0.000s      0.000w     13 calls
JK: JK                      :      0.000u      0.000s      0.001w     13 calls
PK computes JK              :      0.000u      0.000s      0.001w     13 calls
JK: AO2USO                  :      0.000u      0.000s      0.000w     13 calls
HF: Form F                  :      0.000u      0.000s      0.000w     13 calls
HF: DIIS                    :      0.000u      0.000s      0.000w     13 calls
HF: Form C                  :      0.000u      0.000s      0.001w     13 calls
HF: Form D                  :      0.000u      0.000s      0.000w     13 calls

-----------------------------------------------------------
Total PK formation time     :      0.017u      0.000s      0.012w      1 calls
HF: Form H                  :      0.000u      0.000s      0.005w      1 calls
HF: Form S/X                :      0.000u      0.000s      0.000w      1 calls
HF: Guess                   :      0.000u      0.000s      0.000w      1 calls
HF: Form G                  :      0.017u      0.000s      0.001w     13 calls
| JK: D                     :      0.000u      0.000s      0.000w     13 calls
| JK: USO2AO                :      0.000u      0.000s      0.000w     13 calls
| JK: JK                    :      0.000u      0.000s      0.001w     13 calls
| | PK computes JK          :      0.000u      0.000s      0.001w     13 calls
| JK: AO2USO                :      0.000u      0.000s      0.000w     13 calls
HF: Form F                  :      0.000u      0.000s      0.000w     13 calls
HF: DIIS                    :      0.000u      0.000s      0.000w     13 calls
HF: Form C                  :      0.000u      0.000s      0.001w     13 calls
HF: Form D                  :      0.000u      0.000s      0.000w     13 calls

***********************************************************

Host: shannon-book.local

Timers On : Tue Oct  2 14:46:39 2018
Timers Off: Tue Oct  2 14:46:40 2018

Wall Time:        1.09 seconds

Total PK formation time     :      0.017u      0.000s      0.012w      1 calls
HF: Form H                  :      0.000u      0.000s      0.006w      1 calls
HF: Form S/X                :      0.000u      0.000s      0.000w      1 calls
HF: Guess                   :      0.000u      0.000s      0.000w      1 calls
HF: Form G                  :      0.000u      0.000s      0.001w     15 calls
JK: D                       :      0.000u      0.000s      0.000w     15 calls
JK: USO2AO                  :      0.000u      0.000s      0.000w     15 calls
JK: JK                      :      0.000u      0.000s      0.001w     15 calls
PK computes JK              :      0.000u      0.000s      0.001w     15 calls
JK: AO2USO                  :      0.000u      0.000s      0.000w     15 calls
HF: Form F                  :      0.000u      0.000s      0.000w     15 calls
HF: DIIS                    :      0.000u      0.000s      0.000w     15 calls
HF: Form C                  :      0.000u      0.000s      0.001w     15 calls
HF: Form D                  :      0.000u      0.000s      0.000w     15 calls

-----------------------------------------------------------
Total PK formation time     :      0.017u      0.000s      0.012w      1 calls
HF: Form H                  :      0.000u      0.000s      0.006w      1 calls
HF: Form S/X                :      0.000u      0.000s      0.000w      1 calls
HF: Guess                   :      0.000u      0.000s      0.000w      1 calls
HF: Form G                  :      0.000u      0.000s      0.001w     15 calls
| JK: D                     :      0.000u      0.000s      0.000w     15 calls
| JK: USO2AO                :      0.000u      0.000s      0.000w     15 calls
| JK: JK                    :      0.000u      0.000s      0.001w     15 calls
| | PK computes JK          :      0.000u      0.000s      0.001w     15 calls
| JK: AO2USO                :      0.000u      0.000s      0.000w     15 calls
HF: Form F                  :      0.000u      0.000s      0.000w     15 calls
HF: DIIS                    :      0.000u      0.000s      0.000w     15 calls
HF: Form C                  :      0.000u      0.000s      0.001w     15 calls
HF: Form D                  :      0.000u      0.000s      0.000w     15 calls

***********************************************************

Host: shannon-book.local

Timers On : Tue Oct  2 14:47:38 2018
Timers Off: Tue Oct  2 14:47:40 2018

Wall Time:        1.75 seconds


-----------------------------------------------------------

***********************************************************

Host: shannon-book.local

Timers On : Tue Oct  2 14:47:46 2018
Timers Off: Tue Oct  2 14:47:47 2018

Wall Time:        1.06 seconds

Total PK formation time     :      0.017u      0.000s      0.018w      1 calls
HF: Form H                  :      0.000u      0.000s      0.008w      1 calls
HF: Form S/X                :      0.000u      0.000s      0.000w      1 calls
HF: Guess                   :      0.000u      0.000s      0.000w      1 calls
HF: Form G                  :      0.000u      0.000s      0.001w     18 calls
JK: D                       :      0.000u      0.000s      0.000w     18 calls
JK: USO2AO                  :      0.000u      0.000s      0.000w     18 calls
JK: JK                      :      0.000u      0.000s      0.001w     18 calls
PK computes JK              :      0.000u      0.000s      0.001w     18 calls
JK: AO2USO                  :      0.000u      0.000s      0.000w     18 calls
HF: Form F                  :      0.000u      0.000s      0.000w     18 calls
HF: DIIS                    :      0.000u      0.000s      0.000w     18 calls
HF: Form C                  :      0.000u      0.000s      0.001w     18 calls
HF: Form D                  :      0.000u      0.000s      0.000w     18 calls

-----------------------------------------------------------
Total PK formation time     :      0.017u      0.000s      0.018w      1 calls
HF: Form H                  :      0.000u      0.000s      0.008w      1 calls
HF: Form S/X                :      0.000u      0.000s      0.000w      1 calls
HF: Guess                   :      0.000u      0.000s      0.000w      1 calls
HF: Form G                  :      0.000u      0.000s      0.001w     18 calls
| JK: D                     :      0.000u      0.000s      0.000w     18 calls
| JK: USO2AO                :      0.000u      0.000s      0.000w     18 calls
| JK: JK                    :      0.000u      0.000s      0.001w     18 calls
| | PK computes JK          :      0.000u      0.000s      0.001w     18 calls
| JK: AO2USO                :      0.000u      0.000s      0.000w     18 calls
HF: Form F                  :      0.000u      0.000s      0.000w     18 calls
HF: DIIS                    :      0.000u      0.000s      0.000w     18 calls
HF: Form C                  :      0.000u      0.000s      0.001w     18 calls
HF: Form D                  :      0.000u      0.000s      0.000w     18 calls

***********************************************************

Host: shannon-book.local

Timers On : Tue Oct  2 14:48:03 2018
Timers Off: Tue Oct  2 14:48:04 2018

Wall Time:        1.08 seconds

Total PK formation time     :      0.017u      0.000s      0.012w      1 calls
HF: Form H                  :      0.000u      0.000s      0.006w      1 calls
HF: Form S/X                :      0.000u      0.000s      0.000w      1 calls
HF: Guess                   :      0.000u      0.000s      0.000w      1 calls
HF: Form G                  :      0.000u      0.000s      0.001w     15 calls
JK: D                       :      0.000u      0.000s      0.000w     15 calls
JK: USO2AO                  :      0.000u      0.000s      0.000w     15 calls
JK: JK                      :      0.000u      0.000s      0.001w     15 calls
PK computes JK              :      0.000u      0.000s      0.001w     15 calls
JK: AO2USO                  :      0.000u      0.000s      0.000w     15 calls
HF: Form F                  :      0.000u      0.000s      0.000w     15 calls
HF: DIIS                    :      0.000u      0.000s      0.000w     15 calls
HF: Form C                  :      0.017u      0.000s      0.001w     15 calls
HF: Form D                  :      0.000u      0.000s      0.000w     15 calls

-----------------------------------------------------------
Total PK formation time     :      0.017u      0.000s      0.012w      1 calls
HF: Form H                  :      0.000u      0.000s      0.006w      1 calls
HF: Form S/X                :      0.000u      0.000s      0.000w      1 calls
HF: Guess                   :      0.000u      0.000s      0.000w      1 calls
HF: Form G                  :      0.000u      0.000s      0.001w     15 calls
| JK: D                     :      0.000u      0.000s      0.000w     15 calls
| JK: USO2AO                :      0.000u      0.000s      0.000w     15 calls
| JK: JK                    :      0.000u      0.000s      0.001w     15 calls
| | PK computes JK          :      0.000u      0.000s      0.001w     15 calls
| JK: AO2USO                :      0.000u      0.000s      0.000w     15 calls
HF: Form F                  :      0.000u      0.000s      0.000w     15 calls
HF: DIIS                    :      0.000u      0.000s      0.000w     15 calls
HF: Form C                  :      0.017u      0.000s      0.001w     15 calls
HF: Form D                  :      0.000u      0.000s      0.000w     15 calls

***********************************************************

Host: shannon-book.local

Timers On : Tue Oct  2 15:16:52 2018
Timers Off: Tue Oct  2 15:16:53 2018

Wall Time:        1.08 seconds

Total PK formation time     :      0.033u      0.000s      0.012w      1 calls
HF: Form H                  :      0.000u      0.000s      0.004w      1 calls
HF: Form S/X                :      0.000u      0.000s      0.000w      1 calls
HF: Guess                   :      0.000u      0.000s      0.000w      1 calls
HF: Form G                  :      0.000u      0.000s      0.003w     15 calls
JK: D                       :      0.000u      0.000s      0.000w     15 calls
JK: USO2AO                  :      0.000u      0.000s      0.000w     15 calls
JK: JK                      :      0.000u      0.000s      0.002w     15 calls
PK computes JK              :      0.000u      0.000s      0.002w     15 calls
JK: AO2USO                  :      0.000u      0.000s      0.000w     15 calls
HF: Form F                  :      0.000u      0.000s      0.000w     15 calls
HF: DIIS                    :      0.000u      0.000s      0.000w     15 calls
HF: Form C                  :      0.000u      0.000s      0.001w     15 calls
HF: Form D                  :      0.000u      0.000s      0.000w     15 calls

-----------------------------------------------------------
Total PK formation time     :      0.033u      0.000s      0.012w      1 calls
HF: Form H                  :      0.000u      0.000s      0.004w      1 calls
HF: Form S/X                :      0.000u      0.000s      0.000w      1 calls
HF: Guess                   :      0.000u      0.000s      0.000w      1 calls
HF: Form G                  :      0.000u      0.000s      0.003w     15 calls
| JK: D                     :      0.000u      0.000s      0.000w     15 calls
| JK: USO2AO                :      0.000u      0.000s      0.000w     15 calls
| JK: JK                    :      0.000u      0.000s      0.002w     15 calls
| | PK computes JK          :      0.000u      0.000s      0.002w     15 calls
| JK: AO2USO                :      0.000u      0.000s      0.000w     15 calls
HF: Form F                  :      0.000u      0.000s      0.000w     15 calls
HF: DIIS                    :      0.000u      0.000s      0.000w     15 calls
HF: Form C                  :      0.000u      0.000s      0.001w     15 calls
HF: Form D                  :      0.000u      0.000s      0.000w     15 calls

***********************************************************

Host: shannon-book.local

Timers On : Tue Oct  2 15:17:08 2018
Timers Off: Tue Oct  2 15:17:09 2018

Wall Time:        1.12 seconds

Total PK formation time     :      0.033u      0.000s      0.015w      1 calls
HF: Form H                  :      0.000u      0.000s      0.005w      1 calls
HF: Form S/X                :      0.000u      0.000s      0.000w      1 calls
HF: Guess                   :      0.000u      0.000s      0.000w      1 calls
HF: Form G                  :      0.000u      0.000s      0.001w     15 calls
JK: D                       :      0.000u      0.000s      0.000w     15 calls
JK: USO2AO                  :      0.000u      0.000s      0.000w     15 calls
JK: JK                      :      0.000u      0.000s      0.001w     15 calls
PK computes JK              :      0.000u      0.000s      0.001w     15 calls
JK: AO2USO                  :      0.000u      0.000s      0.000w     15 calls
HF: Form F                  :      0.000u      0.000s      0.000w     15 calls
HF: DIIS                    :      0.000u      0.000s      0.000w     15 calls
HF: Form C                  :      0.000u      0.000s      0.001w     15 calls
HF: Form D                  :      0.000u      0.000s      0.000w     15 calls

-----------------------------------------------------------
Total PK formation time     :      0.033u      0.000s      0.015w      1 calls
HF: Form H                  :      0.000u      0.000s      0.005w      1 calls
HF: Form S/X                :      0.000u      0.000s      0.000w      1 calls
HF: Guess                   :      0.000u      0.000s      0.000w      1 calls
HF: Form G                  :      0.000u      0.000s      0.001w     15 calls
| JK: D                     :      0.000u      0.000s      0.000w     15 calls
| JK: USO2AO                :      0.000u      0.000s      0.000w     15 calls
| JK: JK                    :      0.000u      0.000s      0.001w     15 calls
| | PK computes JK          :      0.000u      0.000s      0.001w     15 calls
| JK: AO2USO                :      0.000u      0.000s      0.000w     15 calls
HF: Form F                  :      0.000u      0.000s      0.000w     15 calls
HF: DIIS                    :      0.000u      0.000s      0.000w     15 calls
HF: Form C                  :      0.000u      0.000s      0.001w     15 calls
HF: Form D                  :      0.000u      0.000s      0.000w     15 calls

***********************************************************
