
Host: shannon-book.local

Timers On : Thu Jan 17 16:21:24 2019
Timers Off: Thu Jan 17 16:21:25 2019

Wall Time:        1.60 seconds

JK: (A|mn)                  :      0.033u      0.000s      0.016w      1 calls
JK: (A|Q)^-1/2              :      0.017u      0.000s      0.012w      1 calls
JK: (Q|mn)                  :      0.000u      0.000s      0.000w      1 calls
HF: Form H                  :      0.000u      0.000s      0.004w      1 calls
HF: Form S/X                :      0.000u      0.000s      0.000w      1 calls
HF: Guess                   :      0.000u      0.000s      0.000w      1 calls
HF: Form G                  :      0.767u      0.017s      0.470w     29 calls
JK: D                       :      0.000u      0.000s      0.000w     29 calls
JK: USO2AO                  :      0.000u      0.000s      0.000w     29 calls
JK: JK                      :      0.767u      0.017s      0.469w     29 calls
JK: J                       :      0.000u      0.000s      0.002w     20 calls
JK: J1                      :      0.000u      0.000s      0.001w     40 calls
JK: J2                      :      0.000u      0.000s      0.001w     40 calls
JK: K                       :      0.033u      0.000s      0.012w     20 calls
JK: K1                      :      0.033u      0.000s      0.010w     40 calls
JK: K2                      :      0.000u      0.000s      0.002w     40 calls
JK: AO2USO                  :      0.000u      0.000s      0.000w     29 calls
HF: Form F                  :      0.000u      0.000s      0.001w     29 calls
HF: DIIS                    :      0.000u      0.000s      0.003w     29 calls
DIISManager::add_entry      :      0.000u      0.000s      0.001w     10 calls
DIISManager::extrapolate    :      0.000u      0.000s      0.001w      9 calls
bMatrix setup               :      0.000u      0.000s      0.000w      9 calls
bMatrix pseudoinverse       :      0.000u      0.000s      0.000w      9 calls
New vector                  :      0.000u      0.000s      0.000w      9 calls
HF: Form C                  :      0.000u      0.000s      0.003w     29 calls
HF: Form D                  :      0.000u      0.000s      0.000w     29 calls

-----------------------------------------------------------
JK: (A|mn)                  :      0.033u      0.000s      0.016w      1 calls
JK: (A|Q)^-1/2              :      0.017u      0.000s      0.012w      1 calls
JK: (Q|mn)                  :      0.000u      0.000s      0.000w      1 calls
HF: Form H                  :      0.000u      0.000s      0.004w      1 calls
HF: Form S/X                :      0.000u      0.000s      0.000w      1 calls
HF: Guess                   :      0.000u      0.000s      0.000w      1 calls
HF: Form G                  :      0.767u      0.017s      0.470w     29 calls
| JK: D                     :      0.000u      0.000s      0.000w     29 calls
| JK: USO2AO                :      0.000u      0.000s      0.000w     29 calls
| JK: JK                    :      0.767u      0.017s      0.469w     29 calls
| | JK: J                   :      0.000u      0.000s      0.002w     20 calls
| | | JK: J1                :      0.000u      0.000s      0.001w     40 calls
| | | JK: J2                :      0.000u      0.000s      0.001w     40 calls
| | JK: K                   :      0.033u      0.000s      0.012w     20 calls
| | | JK: K1                :      0.033u      0.000s      0.010w     40 calls
| | | JK: K2                :      0.000u      0.000s      0.002w     40 calls
| JK: AO2USO                :      0.000u      0.000s      0.000w     29 calls
HF: Form F                  :      0.000u      0.000s      0.001w     29 calls
HF: DIIS                    :      0.000u      0.000s      0.003w     29 calls
| DIISManager::add_entry    :      0.000u      0.000s      0.001w     10 calls
| DIISManager::extrapolate  :      0.000u      0.000s      0.001w      9 calls
| | bMatrix setup           :      0.000u      0.000s      0.000w      9 calls
| | bMatrix pseudoinverse   :      0.000u      0.000s      0.000w      9 calls
| | New vector              :      0.000u      0.000s      0.000w      9 calls
HF: Form C                  :      0.000u      0.000s      0.003w     29 calls
HF: Form D                  :      0.000u      0.000s      0.000w     29 calls

***********************************************************

Host: shannon-book.local

Timers On : Thu Jan 17 16:22:12 2019
Timers Off: Thu Jan 17 16:22:14 2019

Wall Time:        1.61 seconds

JK: (A|mn)                  :      0.033u      0.000s      0.016w      1 calls
JK: (A|Q)^-1/2              :      0.017u      0.000s      0.013w      1 calls
JK: (Q|mn)                  :      0.000u      0.000s      0.000w      1 calls
HF: Form H                  :      0.000u      0.000s      0.004w      1 calls
HF: Form S/X                :      0.000u      0.000s      0.000w      1 calls
HF: Guess                   :      0.000u      0.000s      0.000w      1 calls
HF: Form G                  :      0.783u      0.017s      0.512w     29 calls
JK: D                       :      0.000u      0.000s      0.000w     29 calls
JK: USO2AO                  :      0.000u      0.000s      0.000w     29 calls
JK: JK                      :      0.783u      0.017s      0.511w     29 calls
JK: J                       :      0.017u      0.000s      0.002w     20 calls
JK: J1                      :      0.000u      0.000s      0.001w     40 calls
JK: J2                      :      0.017u      0.000s      0.001w     40 calls
JK: K                       :      0.017u      0.000s      0.012w     20 calls
JK: K1                      :      0.017u      0.000s      0.010w     40 calls
JK: K2                      :      0.000u      0.000s      0.002w     40 calls
JK: AO2USO                  :      0.000u      0.000s      0.000w     29 calls
HF: Form F                  :      0.000u      0.000s      0.001w     29 calls
HF: DIIS                    :      0.017u      0.000s      0.003w     29 calls
DIISManager::add_entry      :      0.000u      0.000s      0.001w     10 calls
DIISManager::extrapolate    :      0.000u      0.000s      0.001w      9 calls
bMatrix setup               :      0.000u      0.000s      0.000w      9 calls
bMatrix pseudoinverse       :      0.000u      0.000s      0.000w      9 calls
New vector                  :      0.000u      0.000s      0.000w      9 calls
HF: Form C                  :      0.000u      0.000s      0.004w     29 calls
HF: Form D                  :      0.000u      0.000s      0.000w     29 calls

-----------------------------------------------------------
JK: (A|mn)                  :      0.033u      0.000s      0.016w      1 calls
JK: (A|Q)^-1/2              :      0.017u      0.000s      0.013w      1 calls
JK: (Q|mn)                  :      0.000u      0.000s      0.000w      1 calls
HF: Form H                  :      0.000u      0.000s      0.004w      1 calls
HF: Form S/X                :      0.000u      0.000s      0.000w      1 calls
HF: Guess                   :      0.000u      0.000s      0.000w      1 calls
HF: Form G                  :      0.783u      0.017s      0.512w     29 calls
| JK: D                     :      0.000u      0.000s      0.000w     29 calls
| JK: USO2AO                :      0.000u      0.000s      0.000w     29 calls
| JK: JK                    :      0.783u      0.017s      0.511w     29 calls
| | JK: J                   :      0.017u      0.000s      0.002w     20 calls
| | | JK: J1                :      0.000u      0.000s      0.001w     40 calls
| | | JK: J2                :      0.017u      0.000s      0.001w     40 calls
| | JK: K                   :      0.017u      0.000s      0.012w     20 calls
| | | JK: K1                :      0.017u      0.000s      0.010w     40 calls
| | | JK: K2                :      0.000u      0.000s      0.002w     40 calls
| JK: AO2USO                :      0.000u      0.000s      0.000w     29 calls
HF: Form F                  :      0.000u      0.000s      0.001w     29 calls
HF: DIIS                    :      0.017u      0.000s      0.003w     29 calls
| DIISManager::add_entry    :      0.000u      0.000s      0.001w     10 calls
| DIISManager::extrapolate  :      0.000u      0.000s      0.001w      9 calls
| | bMatrix setup           :      0.000u      0.000s      0.000w      9 calls
| | bMatrix pseudoinverse   :      0.000u      0.000s      0.000w      9 calls
| | New vector              :      0.000u      0.000s      0.000w      9 calls
HF: Form C                  :      0.000u      0.000s      0.004w     29 calls
HF: Form D                  :      0.000u      0.000s      0.000w     29 calls

***********************************************************

Host: shannon-book.local

Timers On : Thu Jan 17 16:23:06 2019
Timers Off: Thu Jan 17 16:23:09 2019

Wall Time:        3.06 seconds

JK: (A|mn)                  :      0.033u      0.000s      0.020w      1 calls
JK: (A|Q)^-1/2              :      0.017u      0.000s      0.015w      1 calls
JK: (Q|mn)                  :      0.017u      0.000s      0.001w      1 calls
HF: Form H                  :      0.000u      0.000s      0.004w      1 calls
HF: Form S/X                :      0.000u      0.000s      0.000w      1 calls
HF: Guess                   :      0.000u      0.000s      0.000w      1 calls
HF: Form G                  :      0.800u      0.017s      0.535w     29 calls
JK: D                       :      0.000u      0.000s      0.000w     29 calls
JK: USO2AO                  :      0.000u      0.000s      0.000w     29 calls
JK: JK                      :      0.800u      0.017s      0.533w     29 calls
JK: J                       :      0.000u      0.000s      0.002w     20 calls
JK: J1                      :      0.000u      0.000s      0.001w     40 calls
JK: J2                      :      0.000u      0.000s      0.001w     40 calls
JK: K                       :      0.017u      0.000s      0.018w     20 calls
JK: K1                      :      0.017u      0.000s      0.015w     40 calls
JK: K2                      :      0.000u      0.000s      0.002w     40 calls
JK: AO2USO                  :      0.000u      0.000s      0.000w     29 calls
HF: Form F                  :      0.017u      0.000s      0.001w     29 calls
HF: DIIS                    :      0.000u      0.000s      0.003w     29 calls
DIISManager::add_entry      :      0.000u      0.000s      0.001w     10 calls
DIISManager::extrapolate    :      0.000u      0.000s      0.001w      9 calls
bMatrix setup               :      0.000u      0.000s      0.000w      9 calls
bMatrix pseudoinverse       :      0.000u      0.000s      0.000w      9 calls
New vector                  :      0.000u      0.000s      0.000w      9 calls
HF: Form C                  :      0.000u      0.000s      0.004w     29 calls
HF: Form D                  :      0.000u      0.000s      0.002w     29 calls

-----------------------------------------------------------
JK: (A|mn)                  :      0.033u      0.000s      0.020w      1 calls
JK: (A|Q)^-1/2              :      0.017u      0.000s      0.015w      1 calls
JK: (Q|mn)                  :      0.017u      0.000s      0.001w      1 calls
HF: Form H                  :      0.000u      0.000s      0.004w      1 calls
HF: Form S/X                :      0.000u      0.000s      0.000w      1 calls
HF: Guess                   :      0.000u      0.000s      0.000w      1 calls
HF: Form G                  :      0.800u      0.017s      0.535w     29 calls
| JK: D                     :      0.000u      0.000s      0.000w     29 calls
| JK: USO2AO                :      0.000u      0.000s      0.000w     29 calls
| JK: JK                    :      0.800u      0.017s      0.533w     29 calls
| | JK: J                   :      0.000u      0.000s      0.002w     20 calls
| | | JK: J1                :      0.000u      0.000s      0.001w     40 calls
| | | JK: J2                :      0.000u      0.000s      0.001w     40 calls
| | JK: K                   :      0.017u      0.000s      0.018w     20 calls
| | | JK: K1                :      0.017u      0.000s      0.015w     40 calls
| | | JK: K2                :      0.000u      0.000s      0.002w     40 calls
| JK: AO2USO                :      0.000u      0.000s      0.000w     29 calls
HF: Form F                  :      0.017u      0.000s      0.001w     29 calls
HF: DIIS                    :      0.000u      0.000s      0.003w     29 calls
| DIISManager::add_entry    :      0.000u      0.000s      0.001w     10 calls
| DIISManager::extrapolate  :      0.000u      0.000s      0.001w      9 calls
| | bMatrix setup           :      0.000u      0.000s      0.000w      9 calls
| | bMatrix pseudoinverse   :      0.000u      0.000s      0.000w      9 calls
| | New vector              :      0.000u      0.000s      0.000w      9 calls
HF: Form C                  :      0.000u      0.000s      0.004w     29 calls
HF: Form D                  :      0.000u      0.000s      0.002w     29 calls

***********************************************************

Host: shannon-book.local

Timers On : Thu Jan 17 16:24:08 2019
Timers Off: Thu Jan 17 16:24:11 2019

Wall Time:        2.78 seconds

JK: (A|mn)                  :      0.033u      0.000s      0.019w      1 calls
JK: (A|Q)^-1/2              :      0.017u      0.000s      0.012w      1 calls
JK: (Q|mn)                  :      0.000u      0.000s      0.000w      1 calls
HF: Form H                  :      0.000u      0.000s      0.003w      1 calls
HF: Form S/X                :      0.000u      0.000s      0.000w      1 calls
HF: Guess                   :      0.000u      0.000s      0.000w      1 calls
HF: Form G                  :      0.783u      0.017s      0.538w     29 calls
JK: D                       :      0.000u      0.000s      0.000w     29 calls
JK: USO2AO                  :      0.000u      0.000s      0.000w     29 calls
JK: JK                      :      0.783u      0.017s      0.537w     29 calls
JK: J                       :      0.000u      0.000s      0.002w     20 calls
JK: J1                      :      0.000u      0.000s      0.001w     40 calls
JK: J2                      :      0.000u      0.000s      0.001w     40 calls
JK: K                       :      0.017u      0.000s      0.012w     20 calls
JK: K1                      :      0.017u      0.000s      0.010w     40 calls
JK: K2                      :      0.000u      0.000s      0.002w     40 calls
JK: AO2USO                  :      0.000u      0.000s      0.000w     29 calls
HF: Form F                  :      0.000u      0.000s      0.001w     29 calls
HF: DIIS                    :      0.000u      0.000s      0.003w     29 calls
DIISManager::add_entry      :      0.000u      0.000s      0.001w     10 calls
DIISManager::extrapolate    :      0.000u      0.000s      0.001w      9 calls
bMatrix setup               :      0.000u      0.000s      0.000w      9 calls
bMatrix pseudoinverse       :      0.000u      0.000s      0.000w      9 calls
New vector                  :      0.000u      0.000s      0.000w      9 calls
HF: Form C                  :      0.017u      0.000s      0.003w     29 calls
HF: Form D                  :      0.000u      0.000s      0.000w     29 calls

-----------------------------------------------------------
JK: (A|mn)                  :      0.033u      0.000s      0.019w      1 calls
JK: (A|Q)^-1/2              :      0.017u      0.000s      0.012w      1 calls
JK: (Q|mn)                  :      0.000u      0.000s      0.000w      1 calls
HF: Form H                  :      0.000u      0.000s      0.003w      1 calls
HF: Form S/X                :      0.000u      0.000s      0.000w      1 calls
HF: Guess                   :      0.000u      0.000s      0.000w      1 calls
HF: Form G                  :      0.783u      0.017s      0.538w     29 calls
| JK: D                     :      0.000u      0.000s      0.000w     29 calls
| JK: USO2AO                :      0.000u      0.000s      0.000w     29 calls
| JK: JK                    :      0.783u      0.017s      0.537w     29 calls
| | JK: J                   :      0.000u      0.000s      0.002w     20 calls
| | | JK: J1                :      0.000u      0.000s      0.001w     40 calls
| | | JK: J2                :      0.000u      0.000s      0.001w     40 calls
| | JK: K                   :      0.017u      0.000s      0.012w     20 calls
| | | JK: K1                :      0.017u      0.000s      0.010w     40 calls
| | | JK: K2                :      0.000u      0.000s      0.002w     40 calls
| JK: AO2USO                :      0.000u      0.000s      0.000w     29 calls
HF: Form F                  :      0.000u      0.000s      0.001w     29 calls
HF: DIIS                    :      0.000u      0.000s      0.003w     29 calls
| DIISManager::add_entry    :      0.000u      0.000s      0.001w     10 calls
| DIISManager::extrapolate  :      0.000u      0.000s      0.001w      9 calls
| | bMatrix setup           :      0.000u      0.000s      0.000w      9 calls
| | bMatrix pseudoinverse   :      0.000u      0.000s      0.000w      9 calls
| | New vector              :      0.000u      0.000s      0.000w      9 calls
HF: Form C                  :      0.017u      0.000s      0.003w     29 calls
HF: Form D                  :      0.000u      0.000s      0.000w     29 calls

***********************************************************

Host: shannon-book.local

Timers On : Thu Jan 17 16:24:18 2019
Timers Off: Thu Jan 17 16:24:21 2019

Wall Time:        2.78 seconds

JK: (A|mn)                  :      0.033u      0.000s      0.018w      1 calls
JK: (A|Q)^-1/2              :      0.017u      0.000s      0.012w      1 calls
JK: (Q|mn)                  :      0.000u      0.000s      0.000w      1 calls
HF: Form H                  :      0.000u      0.000s      0.003w      1 calls
HF: Form S/X                :      0.000u      0.000s      0.000w      1 calls
HF: Guess                   :      0.000u      0.000s      0.000w      1 calls
HF: Form G                  :      0.800u      0.017s      0.536w     29 calls
JK: D                       :      0.000u      0.000s      0.000w     29 calls
JK: USO2AO                  :      0.000u      0.000s      0.000w     29 calls
JK: JK                      :      0.800u      0.017s      0.535w     29 calls
JK: J                       :      0.000u      0.000s      0.002w     20 calls
JK: J1                      :      0.000u      0.000s      0.001w     40 calls
JK: J2                      :      0.000u      0.000s      0.001w     40 calls
JK: K                       :      0.033u      0.000s      0.012w     20 calls
JK: K1                      :      0.033u      0.000s      0.010w     40 calls
JK: K2                      :      0.000u      0.000s      0.002w     40 calls
JK: AO2USO                  :      0.000u      0.000s      0.000w     29 calls
HF: Form F                  :      0.000u      0.000s      0.001w     29 calls
HF: DIIS                    :      0.000u      0.000s      0.003w     29 calls
DIISManager::add_entry      :      0.000u      0.000s      0.001w     10 calls
DIISManager::extrapolate    :      0.000u      0.000s      0.001w      9 calls
bMatrix setup               :      0.000u      0.000s      0.000w      9 calls
bMatrix pseudoinverse       :      0.000u      0.000s      0.000w      9 calls
New vector                  :      0.000u      0.000s      0.000w      9 calls
HF: Form C                  :      0.000u      0.000s      0.003w     29 calls
HF: Form D                  :      0.000u      0.000s      0.000w     29 calls

-----------------------------------------------------------
JK: (A|mn)                  :      0.033u      0.000s      0.018w      1 calls
JK: (A|Q)^-1/2              :      0.017u      0.000s      0.012w      1 calls
JK: (Q|mn)                  :      0.000u      0.000s      0.000w      1 calls
HF: Form H                  :      0.000u      0.000s      0.003w      1 calls
HF: Form S/X                :      0.000u      0.000s      0.000w      1 calls
HF: Guess                   :      0.000u      0.000s      0.000w      1 calls
HF: Form G                  :      0.800u      0.017s      0.536w     29 calls
| JK: D                     :      0.000u      0.000s      0.000w     29 calls
| JK: USO2AO                :      0.000u      0.000s      0.000w     29 calls
| JK: JK                    :      0.800u      0.017s      0.535w     29 calls
| | JK: J                   :      0.000u      0.000s      0.002w     20 calls
| | | JK: J1                :      0.000u      0.000s      0.001w     40 calls
| | | JK: J2                :      0.000u      0.000s      0.001w     40 calls
| | JK: K                   :      0.033u      0.000s      0.012w     20 calls
| | | JK: K1                :      0.033u      0.000s      0.010w     40 calls
| | | JK: K2                :      0.000u      0.000s      0.002w     40 calls
| JK: AO2USO                :      0.000u      0.000s      0.000w     29 calls
HF: Form F                  :      0.000u      0.000s      0.001w     29 calls
HF: DIIS                    :      0.000u      0.000s      0.003w     29 calls
| DIISManager::add_entry    :      0.000u      0.000s      0.001w     10 calls
| DIISManager::extrapolate  :      0.000u      0.000s      0.001w      9 calls
| | bMatrix setup           :      0.000u      0.000s      0.000w      9 calls
| | bMatrix pseudoinverse   :      0.000u      0.000s      0.000w      9 calls
| | New vector              :      0.000u      0.000s      0.000w      9 calls
HF: Form C                  :      0.000u      0.000s      0.003w     29 calls
HF: Form D                  :      0.000u      0.000s      0.000w     29 calls

***********************************************************

Host: shannon-book.local

Timers On : Thu Jan 17 16:25:54 2019
Timers Off: Thu Jan 17 16:25:57 2019

Wall Time:        2.89 seconds

JK: (A|mn)                  :      0.033u      0.000s      0.020w      1 calls
JK: (A|Q)^-1/2              :      0.017u      0.000s      0.013w      1 calls
JK: (Q|mn)                  :      0.000u      0.000s      0.000w      1 calls
HF: Form H                  :      0.000u      0.000s      0.003w      1 calls
HF: Form S/X                :      0.000u      0.000s      0.000w      1 calls
HF: Guess                   :      0.000u      0.000s      0.000w      1 calls
HF: Form G                  :      0.833u      0.033s      0.564w     29 calls
JK: D                       :      0.000u      0.000s      0.000w     29 calls
JK: USO2AO                  :      0.017u      0.000s      0.000w     29 calls
JK: JK                      :      0.817u      0.033s      0.563w     29 calls
JK: J                       :      0.000u      0.000s      0.002w     20 calls
JK: J1                      :      0.000u      0.000s      0.001w     40 calls
JK: J2                      :      0.000u      0.000s      0.001w     40 calls
JK: K                       :      0.033u      0.000s      0.012w     20 calls
JK: K1                      :      0.017u      0.000s      0.010w     40 calls
JK: K2                      :      0.017u      0.000s      0.002w     40 calls
JK: AO2USO                  :      0.000u      0.000s      0.000w     29 calls
HF: Form F                  :      0.000u      0.000s      0.001w     29 calls
HF: DIIS                    :      0.000u      0.000s      0.003w     29 calls
DIISManager::add_entry      :      0.000u      0.000s      0.001w     10 calls
DIISManager::extrapolate    :      0.000u      0.000s      0.001w      9 calls
bMatrix setup               :      0.000u      0.000s      0.000w      9 calls
bMatrix pseudoinverse       :      0.000u      0.000s      0.000w      9 calls
New vector                  :      0.000u      0.000s      0.000w      9 calls
HF: Form C                  :      0.000u      0.000s      0.003w     29 calls
HF: Form D                  :      0.000u      0.000s      0.000w     29 calls

-----------------------------------------------------------
JK: (A|mn)                  :      0.033u      0.000s      0.020w      1 calls
JK: (A|Q)^-1/2              :      0.017u      0.000s      0.013w      1 calls
JK: (Q|mn)                  :      0.000u      0.000s      0.000w      1 calls
HF: Form H                  :      0.000u      0.000s      0.003w      1 calls
HF: Form S/X                :      0.000u      0.000s      0.000w      1 calls
HF: Guess                   :      0.000u      0.000s      0.000w      1 calls
HF: Form G                  :      0.833u      0.033s      0.564w     29 calls
| JK: D                     :      0.000u      0.000s      0.000w     29 calls
| JK: USO2AO                :      0.017u      0.000s      0.000w     29 calls
| JK: JK                    :      0.817u      0.033s      0.563w     29 calls
| | JK: J                   :      0.000u      0.000s      0.002w     20 calls
| | | JK: J1                :      0.000u      0.000s      0.001w     40 calls
| | | JK: J2                :      0.000u      0.000s      0.001w     40 calls
| | JK: K                   :      0.033u      0.000s      0.012w     20 calls
| | | JK: K1                :      0.017u      0.000s      0.010w     40 calls
| | | JK: K2                :      0.017u      0.000s      0.002w     40 calls
| JK: AO2USO                :      0.000u      0.000s      0.000w     29 calls
HF: Form F                  :      0.000u      0.000s      0.001w     29 calls
HF: DIIS                    :      0.000u      0.000s      0.003w     29 calls
| DIISManager::add_entry    :      0.000u      0.000s      0.001w     10 calls
| DIISManager::extrapolate  :      0.000u      0.000s      0.001w      9 calls
| | bMatrix setup           :      0.000u      0.000s      0.000w      9 calls
| | bMatrix pseudoinverse   :      0.000u      0.000s      0.000w      9 calls
| | New vector              :      0.000u      0.000s      0.000w      9 calls
HF: Form C                  :      0.000u      0.000s      0.003w     29 calls
HF: Form D                  :      0.000u      0.000s      0.000w     29 calls

***********************************************************

Host: shannon-book.local

Timers On : Thu Jan 17 16:26:27 2019
Timers Off: Thu Jan 17 16:26:30 2019

Wall Time:        2.79 seconds

JK: (A|mn)                  :      0.033u      0.000s      0.019w      1 calls
JK: (A|Q)^-1/2              :      0.017u      0.000s      0.012w      1 calls
JK: (Q|mn)                  :      0.000u      0.000s      0.000w      1 calls
HF: Form H                  :      0.000u      0.000s      0.003w      1 calls
HF: Form S/X                :      0.000u      0.000s      0.000w      1 calls
HF: Guess                   :      0.000u      0.000s      0.000w      1 calls
HF: Form G                  :      0.783u      0.000s      0.538w     29 calls
JK: D                       :      0.000u      0.000s      0.000w     29 calls
JK: USO2AO                  :      0.000u      0.000s      0.000w     29 calls
JK: JK                      :      0.783u      0.000s      0.537w     29 calls
JK: J                       :      0.000u      0.000s      0.002w     20 calls
JK: J1                      :      0.000u      0.000s      0.001w     40 calls
JK: J2                      :      0.000u      0.000s      0.001w     40 calls
JK: K                       :      0.033u      0.000s      0.012w     20 calls
JK: K1                      :      0.033u      0.000s      0.010w     40 calls
JK: K2                      :      0.000u      0.000s      0.002w     40 calls
JK: AO2USO                  :      0.000u      0.000s      0.000w     29 calls
HF: Form F                  :      0.000u      0.000s      0.001w     29 calls
HF: DIIS                    :      0.000u      0.000s      0.003w     29 calls
DIISManager::add_entry      :      0.000u      0.000s      0.001w     10 calls
DIISManager::extrapolate    :      0.000u      0.000s      0.001w      9 calls
bMatrix setup               :      0.000u      0.000s      0.000w      9 calls
bMatrix pseudoinverse       :      0.000u      0.000s      0.000w      9 calls
New vector                  :      0.000u      0.000s      0.000w      9 calls
HF: Form C                  :      0.000u      0.000s      0.003w     29 calls
HF: Form D                  :      0.000u      0.000s      0.000w     29 calls

-----------------------------------------------------------
JK: (A|mn)                  :      0.033u      0.000s      0.019w      1 calls
JK: (A|Q)^-1/2              :      0.017u      0.000s      0.012w      1 calls
JK: (Q|mn)                  :      0.000u      0.000s      0.000w      1 calls
HF: Form H                  :      0.000u      0.000s      0.003w      1 calls
HF: Form S/X                :      0.000u      0.000s      0.000w      1 calls
HF: Guess                   :      0.000u      0.000s      0.000w      1 calls
HF: Form G                  :      0.783u      0.000s      0.538w     29 calls
| JK: D                     :      0.000u      0.000s      0.000w     29 calls
| JK: USO2AO                :      0.000u      0.000s      0.000w     29 calls
| JK: JK                    :      0.783u      0.000s      0.537w     29 calls
| | JK: J                   :      0.000u      0.000s      0.002w     20 calls
| | | JK: J1                :      0.000u      0.000s      0.001w     40 calls
| | | JK: J2                :      0.000u      0.000s      0.001w     40 calls
| | JK: K                   :      0.033u      0.000s      0.012w     20 calls
| | | JK: K1                :      0.033u      0.000s      0.010w     40 calls
| | | JK: K2                :      0.000u      0.000s      0.002w     40 calls
| JK: AO2USO                :      0.000u      0.000s      0.000w     29 calls
HF: Form F                  :      0.000u      0.000s      0.001w     29 calls
HF: DIIS                    :      0.000u      0.000s      0.003w     29 calls
| DIISManager::add_entry    :      0.000u      0.000s      0.001w     10 calls
| DIISManager::extrapolate  :      0.000u      0.000s      0.001w      9 calls
| | bMatrix setup           :      0.000u      0.000s      0.000w      9 calls
| | bMatrix pseudoinverse   :      0.000u      0.000s      0.000w      9 calls
| | New vector              :      0.000u      0.000s      0.000w      9 calls
HF: Form C                  :      0.000u      0.000s      0.003w     29 calls
HF: Form D                  :      0.000u      0.000s      0.000w     29 calls

***********************************************************

Host: shannon-book.local

Timers On : Thu Jan 17 16:48:57 2019
Timers Off: Thu Jan 17 16:48:58 2019

Wall Time:        0.87 seconds


-----------------------------------------------------------

***********************************************************

Host: shannon-book.local

Timers On : Thu Jan 17 16:49:07 2019
Timers Off: Thu Jan 17 16:49:08 2019

Wall Time:        0.89 seconds


-----------------------------------------------------------

***********************************************************

Host: shannon-book.local

Timers On : Thu Jan 17 16:50:06 2019
Timers Off: Thu Jan 17 16:50:07 2019

Wall Time:        1.64 seconds

JK: (A|mn)                  :      0.033u      0.000s      0.019w      1 calls
JK: (A|Q)^-1/2              :      0.017u      0.000s      0.012w      1 calls
JK: (Q|mn)                  :      0.000u      0.000s      0.000w      1 calls
HF: Form H                  :      0.000u      0.000s      0.003w      1 calls
HF: Form S/X                :      0.000u      0.000s      0.000w      1 calls
HF: Guess                   :      0.000u      0.000s      0.000w      1 calls
HF: Form G                  :      0.767u      0.017s      0.504w     29 calls
JK: D                       :      0.000u      0.000s      0.000w     29 calls
JK: USO2AO                  :      0.000u      0.000s      0.000w     29 calls
JK: JK                      :      0.767u      0.017s      0.503w     29 calls
JK: J                       :      0.000u      0.000s      0.002w     20 calls
JK: J1                      :      0.000u      0.000s      0.001w     40 calls
JK: J2                      :      0.000u      0.000s      0.001w     40 calls
JK: K                       :      0.033u      0.000s      0.012w     20 calls
JK: K1                      :      0.017u      0.000s      0.010w     40 calls
JK: K2                      :      0.017u      0.000s      0.002w     40 calls
JK: AO2USO                  :      0.000u      0.000s      0.000w     29 calls
HF: Form F                  :      0.000u      0.000s      0.001w     29 calls
HF: DIIS                    :      0.000u      0.000s      0.003w     29 calls
DIISManager::add_entry      :      0.000u      0.000s      0.001w     10 calls
DIISManager::extrapolate    :      0.000u      0.000s      0.001w      9 calls
bMatrix setup               :      0.000u      0.000s      0.000w      9 calls
bMatrix pseudoinverse       :      0.000u      0.000s      0.000w      9 calls
New vector                  :      0.000u      0.000s      0.000w      9 calls
HF: Form C                  :      0.000u      0.000s      0.003w     29 calls
HF: Form D                  :      0.000u      0.000s      0.000w     29 calls

-----------------------------------------------------------
JK: (A|mn)                  :      0.033u      0.000s      0.019w      1 calls
JK: (A|Q)^-1/2              :      0.017u      0.000s      0.012w      1 calls
JK: (Q|mn)                  :      0.000u      0.000s      0.000w      1 calls
HF: Form H                  :      0.000u      0.000s      0.003w      1 calls
HF: Form S/X                :      0.000u      0.000s      0.000w      1 calls
HF: Guess                   :      0.000u      0.000s      0.000w      1 calls
HF: Form G                  :      0.767u      0.017s      0.504w     29 calls
| JK: D                     :      0.000u      0.000s      0.000w     29 calls
| JK: USO2AO                :      0.000u      0.000s      0.000w     29 calls
| JK: JK                    :      0.767u      0.017s      0.503w     29 calls
| | JK: J                   :      0.000u      0.000s      0.002w     20 calls
| | | JK: J1                :      0.000u      0.000s      0.001w     40 calls
| | | JK: J2                :      0.000u      0.000s      0.001w     40 calls
| | JK: K                   :      0.033u      0.000s      0.012w     20 calls
| | | JK: K1                :      0.017u      0.000s      0.010w     40 calls
| | | JK: K2                :      0.017u      0.000s      0.002w     40 calls
| JK: AO2USO                :      0.000u      0.000s      0.000w     29 calls
HF: Form F                  :      0.000u      0.000s      0.001w     29 calls
HF: DIIS                    :      0.000u      0.000s      0.003w     29 calls
| DIISManager::add_entry    :      0.000u      0.000s      0.001w     10 calls
| DIISManager::extrapolate  :      0.000u      0.000s      0.001w      9 calls
| | bMatrix setup           :      0.000u      0.000s      0.000w      9 calls
| | bMatrix pseudoinverse   :      0.000u      0.000s      0.000w      9 calls
| | New vector              :      0.000u      0.000s      0.000w      9 calls
HF: Form C                  :      0.000u      0.000s      0.003w     29 calls
HF: Form D                  :      0.000u      0.000s      0.000w     29 calls

***********************************************************

Host: shannon-book.local

Timers On : Thu Jan 17 16:50:35 2019
Timers Off: Thu Jan 17 16:50:38 2019

Wall Time:        2.67 seconds

JK: (A|mn)                  :      0.033u      0.000s      0.016w      1 calls
JK: (A|Q)^-1/2              :      0.017u      0.000s      0.013w      1 calls
JK: (Q|mn)                  :      0.000u      0.000s      0.001w      1 calls
HF: Form H                  :      0.000u      0.017s      0.003w      1 calls
HF: Form S/X                :      0.000u      0.000s      0.000w      1 calls
HF: Guess                   :      0.000u      0.000s      0.000w      1 calls
HF: Form G                  :      0.750u      0.000s      0.480w     29 calls
JK: D                       :      0.000u      0.000s      0.000w     29 calls
JK: USO2AO                  :      0.000u      0.000s      0.000w     29 calls
JK: JK                      :      0.750u      0.000s      0.479w     29 calls
JK: J                       :      0.017u      0.000s      0.002w     20 calls
JK: J1                      :      0.000u      0.000s      0.001w     40 calls
JK: J2                      :      0.017u      0.000s      0.001w     40 calls
JK: K                       :      0.017u      0.000s      0.012w     20 calls
JK: K1                      :      0.017u      0.000s      0.010w     40 calls
JK: K2                      :      0.000u      0.000s      0.002w     40 calls
JK: AO2USO                  :      0.000u      0.000s      0.000w     29 calls
HF: Form F                  :      0.000u      0.000s      0.001w     29 calls
HF: DIIS                    :      0.000u      0.000s      0.003w     29 calls
DIISManager::add_entry      :      0.000u      0.000s      0.001w     10 calls
DIISManager::extrapolate    :      0.000u      0.000s      0.001w      9 calls
bMatrix setup               :      0.000u      0.000s      0.000w      9 calls
bMatrix pseudoinverse       :      0.000u      0.000s      0.000w      9 calls
New vector                  :      0.000u      0.000s      0.000w      9 calls
HF: Form C                  :      0.000u      0.000s      0.003w     29 calls
HF: Form D                  :      0.000u      0.000s      0.000w     29 calls

-----------------------------------------------------------
JK: (A|mn)                  :      0.033u      0.000s      0.016w      1 calls
JK: (A|Q)^-1/2              :      0.017u      0.000s      0.013w      1 calls
JK: (Q|mn)                  :      0.000u      0.000s      0.001w      1 calls
HF: Form H                  :      0.000u      0.017s      0.003w      1 calls
HF: Form S/X                :      0.000u      0.000s      0.000w      1 calls
HF: Guess                   :      0.000u      0.000s      0.000w      1 calls
HF: Form G                  :      0.750u      0.000s      0.480w     29 calls
| JK: D                     :      0.000u      0.000s      0.000w     29 calls
| JK: USO2AO                :      0.000u      0.000s      0.000w     29 calls
| JK: JK                    :      0.750u      0.000s      0.479w     29 calls
| | JK: J                   :      0.017u      0.000s      0.002w     20 calls
| | | JK: J1                :      0.000u      0.000s      0.001w     40 calls
| | | JK: J2                :      0.017u      0.000s      0.001w     40 calls
| | JK: K                   :      0.017u      0.000s      0.012w     20 calls
| | | JK: K1                :      0.017u      0.000s      0.010w     40 calls
| | | JK: K2                :      0.000u      0.000s      0.002w     40 calls
| JK: AO2USO                :      0.000u      0.000s      0.000w     29 calls
HF: Form F                  :      0.000u      0.000s      0.001w     29 calls
HF: DIIS                    :      0.000u      0.000s      0.003w     29 calls
| DIISManager::add_entry    :      0.000u      0.000s      0.001w     10 calls
| DIISManager::extrapolate  :      0.000u      0.000s      0.001w      9 calls
| | bMatrix setup           :      0.000u      0.000s      0.000w      9 calls
| | bMatrix pseudoinverse   :      0.000u      0.000s      0.000w      9 calls
| | New vector              :      0.000u      0.000s      0.000w      9 calls
HF: Form C                  :      0.000u      0.000s      0.003w     29 calls
HF: Form D                  :      0.000u      0.000s      0.000w     29 calls

***********************************************************

Host: shannon-book.local

Timers On : Thu Jan 17 16:52:29 2019
Timers Off: Thu Jan 17 16:52:31 2019

Wall Time:        2.74 seconds

JK: (A|mn)                  :      0.017u      0.000s      0.015w      1 calls
JK: (A|Q)^-1/2              :      0.017u      0.000s      0.013w      1 calls
JK: (Q|mn)                  :      0.000u      0.000s      0.000w      1 calls
HF: Form H                  :      0.000u      0.017s      0.003w      1 calls
HF: Form S/X                :      0.017u      0.000s      0.000w      1 calls
HF: Guess                   :      0.000u      0.000s      0.000w      1 calls
HF: Form G                  :      0.817u      0.000s      0.530w     29 calls
JK: D                       :      0.000u      0.000s      0.000w     29 calls
JK: USO2AO                  :      0.000u      0.000s      0.000w     29 calls
JK: JK                      :      0.817u      0.000s      0.529w     29 calls
JK: J                       :      0.000u      0.000s      0.002w     20 calls
JK: J1                      :      0.000u      0.000s      0.001w     40 calls
JK: J2                      :      0.000u      0.000s      0.001w     40 calls
JK: K                       :      0.033u      0.000s      0.014w     20 calls
JK: K1                      :      0.017u      0.000s      0.011w     40 calls
JK: K2                      :      0.017u      0.000s      0.002w     40 calls
JK: AO2USO                  :      0.000u      0.000s      0.000w     29 calls
HF: Form F                  :      0.000u      0.000s      0.001w     29 calls
HF: DIIS                    :      0.000u      0.000s      0.004w     29 calls
DIISManager::add_entry      :      0.000u      0.000s      0.002w     10 calls
DIISManager::extrapolate    :      0.000u      0.000s      0.001w      9 calls
bMatrix setup               :      0.000u      0.000s      0.000w      9 calls
bMatrix pseudoinverse       :      0.000u      0.000s      0.000w      9 calls
New vector                  :      0.000u      0.000s      0.000w      9 calls
HF: Form C                  :      0.000u      0.000s      0.004w     29 calls
HF: Form D                  :      0.000u      0.000s      0.000w     29 calls

-----------------------------------------------------------
JK: (A|mn)                  :      0.017u      0.000s      0.015w      1 calls
JK: (A|Q)^-1/2              :      0.017u      0.000s      0.013w      1 calls
JK: (Q|mn)                  :      0.000u      0.000s      0.000w      1 calls
HF: Form H                  :      0.000u      0.017s      0.003w      1 calls
HF: Form S/X                :      0.017u      0.000s      0.000w      1 calls
HF: Guess                   :      0.000u      0.000s      0.000w      1 calls
HF: Form G                  :      0.817u      0.000s      0.530w     29 calls
| JK: D                     :      0.000u      0.000s      0.000w     29 calls
| JK: USO2AO                :      0.000u      0.000s      0.000w     29 calls
| JK: JK                    :      0.817u      0.000s      0.529w     29 calls
| | JK: J                   :      0.000u      0.000s      0.002w     20 calls
| | | JK: J1                :      0.000u      0.000s      0.001w     40 calls
| | | JK: J2                :      0.000u      0.000s      0.001w     40 calls
| | JK: K                   :      0.033u      0.000s      0.014w     20 calls
| | | JK: K1                :      0.017u      0.000s      0.011w     40 calls
| | | JK: K2                :      0.017u      0.000s      0.002w     40 calls
| JK: AO2USO                :      0.000u      0.000s      0.000w     29 calls
HF: Form F                  :      0.000u      0.000s      0.001w     29 calls
HF: DIIS                    :      0.000u      0.000s      0.004w     29 calls
| DIISManager::add_entry    :      0.000u      0.000s      0.002w     10 calls
| DIISManager::extrapolate  :      0.000u      0.000s      0.001w      9 calls
| | bMatrix setup           :      0.000u      0.000s      0.000w      9 calls
| | bMatrix pseudoinverse   :      0.000u      0.000s      0.000w      9 calls
| | New vector              :      0.000u      0.000s      0.000w      9 calls
HF: Form C                  :      0.000u      0.000s      0.004w     29 calls
HF: Form D                  :      0.000u      0.000s      0.000w     29 calls

***********************************************************

Host: shannon-book.local

Timers On : Thu Jan 17 16:54:56 2019
Timers Off: Thu Jan 17 16:54:59 2019

Wall Time:        2.74 seconds

JK: (A|mn)                  :      0.033u      0.000s      0.018w      1 calls
JK: (A|Q)^-1/2              :      0.017u      0.000s      0.012w      1 calls
JK: (Q|mn)                  :      0.000u      0.000s      0.000w      1 calls
HF: Form H                  :      0.000u      0.017s      0.003w      1 calls
HF: Form S/X                :      0.000u      0.000s      0.000w      1 calls
HF: Guess                   :      0.000u      0.000s      0.000w      1 calls
HF: Form G                  :      0.767u      0.000s      0.494w     29 calls
JK: D                       :      0.000u      0.000s      0.000w     29 calls
JK: USO2AO                  :      0.000u      0.000s      0.000w     29 calls
JK: JK                      :      0.767u      0.000s      0.493w     29 calls
JK: J                       :      0.000u      0.000s      0.002w     20 calls
JK: J1                      :      0.000u      0.000s      0.001w     40 calls
JK: J2                      :      0.000u      0.000s      0.001w     40 calls
JK: K                       :      0.033u      0.000s      0.012w     20 calls
JK: K1                      :      0.033u      0.000s      0.010w     40 calls
JK: K2                      :      0.000u      0.000s      0.002w     40 calls
JK: AO2USO                  :      0.000u      0.000s      0.000w     29 calls
HF: Form F                  :      0.000u      0.000s      0.001w     29 calls
HF: DIIS                    :      0.000u      0.000s      0.003w     29 calls
DIISManager::add_entry      :      0.000u      0.000s      0.001w     10 calls
DIISManager::extrapolate    :      0.000u      0.000s      0.001w      9 calls
bMatrix setup               :      0.000u      0.000s      0.000w      9 calls
bMatrix pseudoinverse       :      0.000u      0.000s      0.000w      9 calls
New vector                  :      0.000u      0.000s      0.000w      9 calls
HF: Form C                  :      0.000u      0.000s      0.003w     29 calls
HF: Form D                  :      0.000u      0.000s      0.000w     29 calls

-----------------------------------------------------------
JK: (A|mn)                  :      0.033u      0.000s      0.018w      1 calls
JK: (A|Q)^-1/2              :      0.017u      0.000s      0.012w      1 calls
JK: (Q|mn)                  :      0.000u      0.000s      0.000w      1 calls
HF: Form H                  :      0.000u      0.017s      0.003w      1 calls
HF: Form S/X                :      0.000u      0.000s      0.000w      1 calls
HF: Guess                   :      0.000u      0.000s      0.000w      1 calls
HF: Form G                  :      0.767u      0.000s      0.494w     29 calls
| JK: D                     :      0.000u      0.000s      0.000w     29 calls
| JK: USO2AO                :      0.000u      0.000s      0.000w     29 calls
| JK: JK                    :      0.767u      0.000s      0.493w     29 calls
| | JK: J                   :      0.000u      0.000s      0.002w     20 calls
| | | JK: J1                :      0.000u      0.000s      0.001w     40 calls
| | | JK: J2                :      0.000u      0.000s      0.001w     40 calls
| | JK: K                   :      0.033u      0.000s      0.012w     20 calls
| | | JK: K1                :      0.033u      0.000s      0.010w     40 calls
| | | JK: K2                :      0.000u      0.000s      0.002w     40 calls
| JK: AO2USO                :      0.000u      0.000s      0.000w     29 calls
HF: Form F                  :      0.000u      0.000s      0.001w     29 calls
HF: DIIS                    :      0.000u      0.000s      0.003w     29 calls
| DIISManager::add_entry    :      0.000u      0.000s      0.001w     10 calls
| DIISManager::extrapolate  :      0.000u      0.000s      0.001w      9 calls
| | bMatrix setup           :      0.000u      0.000s      0.000w      9 calls
| | bMatrix pseudoinverse   :      0.000u      0.000s      0.000w      9 calls
| | New vector              :      0.000u      0.000s      0.000w      9 calls
HF: Form C                  :      0.000u      0.000s      0.003w     29 calls
HF: Form D                  :      0.000u      0.000s      0.000w     29 calls

***********************************************************

Host: shannon-book.local

Timers On : Thu Jan 17 17:14:23 2019
Timers Off: Thu Jan 17 17:14:24 2019

Wall Time:        0.90 seconds


-----------------------------------------------------------

***********************************************************

Host: shannon-book.local

Timers On : Thu Jan 17 17:14:35 2019
Timers Off: Thu Jan 17 17:14:36 2019

Wall Time:        0.84 seconds


-----------------------------------------------------------

***********************************************************

Host: shannon-book.local

Timers On : Thu Jan 17 17:14:43 2019
Timers Off: Thu Jan 17 17:14:45 2019

Wall Time:        1.59 seconds

JK: (A|mn)                  :      0.017u      0.000s      0.016w      1 calls
JK: (A|Q)^-1/2              :      0.033u      0.000s      0.013w      1 calls
JK: (Q|mn)                  :      0.000u      0.000s      0.001w      1 calls
HF: Form H                  :      0.000u      0.000s      0.003w      1 calls
HF: Form S/X                :      0.000u      0.000s      0.000w      1 calls
HF: Guess                   :      0.000u      0.000s      0.000w      1 calls
HF: Form G                  :      0.733u      0.017s      0.493w     29 calls
JK: D                       :      0.000u      0.000s      0.000w     29 calls
JK: USO2AO                  :      0.000u      0.000s      0.000w     29 calls
JK: JK                      :      0.733u      0.017s      0.493w     29 calls
JK: J                       :      0.000u      0.000s      0.002w     20 calls
JK: J1                      :      0.000u      0.000s      0.001w     40 calls
JK: J2                      :      0.000u      0.000s      0.001w     40 calls
JK: K                       :      0.017u      0.000s      0.012w     20 calls
JK: K1                      :      0.017u      0.000s      0.010w     40 calls
JK: K2                      :      0.000u      0.000s      0.002w     40 calls
JK: AO2USO                  :      0.000u      0.000s      0.000w     29 calls
HF: Form F                  :      0.017u      0.000s      0.001w     29 calls
HF: DIIS                    :      0.000u      0.000s      0.002w     29 calls
DIISManager::add_entry      :      0.000u      0.000s      0.001w     10 calls
DIISManager::extrapolate    :      0.000u      0.000s      0.001w      9 calls
bMatrix setup               :      0.000u      0.000s      0.000w      9 calls
bMatrix pseudoinverse       :      0.000u      0.000s      0.000w      9 calls
New vector                  :      0.000u      0.000s      0.000w      9 calls
HF: Form C                  :      0.000u      0.000s      0.003w     29 calls
HF: Form D                  :      0.000u      0.000s      0.000w     29 calls

-----------------------------------------------------------
JK: (A|mn)                  :      0.017u      0.000s      0.016w      1 calls
JK: (A|Q)^-1/2              :      0.033u      0.000s      0.013w      1 calls
JK: (Q|mn)                  :      0.000u      0.000s      0.001w      1 calls
HF: Form H                  :      0.000u      0.000s      0.003w      1 calls
HF: Form S/X                :      0.000u      0.000s      0.000w      1 calls
HF: Guess                   :      0.000u      0.000s      0.000w      1 calls
HF: Form G                  :      0.733u      0.017s      0.493w     29 calls
| JK: D                     :      0.000u      0.000s      0.000w     29 calls
| JK: USO2AO                :      0.000u      0.000s      0.000w     29 calls
| JK: JK                    :      0.733u      0.017s      0.493w     29 calls
| | JK: J                   :      0.000u      0.000s      0.002w     20 calls
| | | JK: J1                :      0.000u      0.000s      0.001w     40 calls
| | | JK: J2                :      0.000u      0.000s      0.001w     40 calls
| | JK: K                   :      0.017u      0.000s      0.012w     20 calls
| | | JK: K1                :      0.017u      0.000s      0.010w     40 calls
| | | JK: K2                :      0.000u      0.000s      0.002w     40 calls
| JK: AO2USO                :      0.000u      0.000s      0.000w     29 calls
HF: Form F                  :      0.017u      0.000s      0.001w     29 calls
HF: DIIS                    :      0.000u      0.000s      0.002w     29 calls
| DIISManager::add_entry    :      0.000u      0.000s      0.001w     10 calls
| DIISManager::extrapolate  :      0.000u      0.000s      0.001w      9 calls
| | bMatrix setup           :      0.000u      0.000s      0.000w      9 calls
| | bMatrix pseudoinverse   :      0.000u      0.000s      0.000w      9 calls
| | New vector              :      0.000u      0.000s      0.000w      9 calls
HF: Form C                  :      0.000u      0.000s      0.003w     29 calls
HF: Form D                  :      0.000u      0.000s      0.000w     29 calls

***********************************************************

Host: shannon-book.local

Timers On : Thu Jan 17 17:15:07 2019
Timers Off: Thu Jan 17 17:15:09 2019

Wall Time:        1.59 seconds

JK: (A|mn)                  :      0.017u      0.000s      0.017w      1 calls
JK: (A|Q)^-1/2              :      0.017u      0.000s      0.012w      1 calls
JK: (Q|mn)                  :      0.000u      0.000s      0.000w      1 calls
HF: Form H                  :      0.000u      0.000s      0.003w      1 calls
HF: Form S/X                :      0.000u      0.000s      0.000w      1 calls
HF: Guess                   :      0.000u      0.000s      0.000w      1 calls
HF: Form G                  :      0.750u      0.017s      0.484w     29 calls
JK: D                       :      0.000u      0.000s      0.000w     29 calls
JK: USO2AO                  :      0.000u      0.000s      0.000w     29 calls
JK: JK                      :      0.750u      0.017s      0.483w     29 calls
JK: J                       :      0.017u      0.000s      0.002w     20 calls
JK: J1                      :      0.017u      0.000s      0.001w     40 calls
JK: J2                      :      0.000u      0.000s      0.001w     40 calls
JK: K                       :      0.000u      0.000s      0.012w     20 calls
JK: K1                      :      0.000u      0.000s      0.010w     40 calls
JK: K2                      :      0.000u      0.000s      0.002w     40 calls
JK: AO2USO                  :      0.000u      0.000s      0.000w     29 calls
HF: Form F                  :      0.000u      0.000s      0.001w     29 calls
HF: DIIS                    :      0.017u      0.000s      0.003w     29 calls
DIISManager::add_entry      :      0.000u      0.000s      0.001w     10 calls
DIISManager::extrapolate    :      0.000u      0.000s      0.001w      9 calls
bMatrix setup               :      0.000u      0.000s      0.000w      9 calls
bMatrix pseudoinverse       :      0.000u      0.000s      0.000w      9 calls
New vector                  :      0.000u      0.000s      0.000w      9 calls
HF: Form C                  :      0.000u      0.000s      0.003w     29 calls
HF: Form D                  :      0.000u      0.000s      0.000w     29 calls

-----------------------------------------------------------
JK: (A|mn)                  :      0.017u      0.000s      0.017w      1 calls
JK: (A|Q)^-1/2              :      0.017u      0.000s      0.012w      1 calls
JK: (Q|mn)                  :      0.000u      0.000s      0.000w      1 calls
HF: Form H                  :      0.000u      0.000s      0.003w      1 calls
HF: Form S/X                :      0.000u      0.000s      0.000w      1 calls
HF: Guess                   :      0.000u      0.000s      0.000w      1 calls
HF: Form G                  :      0.750u      0.017s      0.484w     29 calls
| JK: D                     :      0.000u      0.000s      0.000w     29 calls
| JK: USO2AO                :      0.000u      0.000s      0.000w     29 calls
| JK: JK                    :      0.750u      0.017s      0.483w     29 calls
| | JK: J                   :      0.017u      0.000s      0.002w     20 calls
| | | JK: J1                :      0.017u      0.000s      0.001w     40 calls
| | | JK: J2                :      0.000u      0.000s      0.001w     40 calls
| | JK: K                   :      0.000u      0.000s      0.012w     20 calls
| | | JK: K1                :      0.000u      0.000s      0.010w     40 calls
| | | JK: K2                :      0.000u      0.000s      0.002w     40 calls
| JK: AO2USO                :      0.000u      0.000s      0.000w     29 calls
HF: Form F                  :      0.000u      0.000s      0.001w     29 calls
HF: DIIS                    :      0.017u      0.000s      0.003w     29 calls
| DIISManager::add_entry    :      0.000u      0.000s      0.001w     10 calls
| DIISManager::extrapolate  :      0.000u      0.000s      0.001w      9 calls
| | bMatrix setup           :      0.000u      0.000s      0.000w      9 calls
| | bMatrix pseudoinverse   :      0.000u      0.000s      0.000w      9 calls
| | New vector              :      0.000u      0.000s      0.000w      9 calls
HF: Form C                  :      0.000u      0.000s      0.003w     29 calls
HF: Form D                  :      0.000u      0.000s      0.000w     29 calls

***********************************************************

Host: shannon-book.local

Timers On : Thu Jan 17 17:15:30 2019
Timers Off: Thu Jan 17 17:15:32 2019

Wall Time:        1.60 seconds

JK: (A|mn)                  :      0.033u      0.000s      0.018w      1 calls
JK: (A|Q)^-1/2              :      0.017u      0.000s      0.012w      1 calls
JK: (Q|mn)                  :      0.000u      0.000s      0.000w      1 calls
HF: Form H                  :      0.000u      0.017s      0.003w      1 calls
HF: Form S/X                :      0.000u      0.000s      0.000w      1 calls
HF: Guess                   :      0.000u      0.000s      0.000w      1 calls
HF: Form G                  :      0.750u      0.000s      0.492w     29 calls
JK: D                       :      0.000u      0.000s      0.000w     29 calls
JK: USO2AO                  :      0.000u      0.000s      0.000w     29 calls
JK: JK                      :      0.750u      0.000s      0.491w     29 calls
JK: J                       :      0.000u      0.000s      0.002w     20 calls
JK: J1                      :      0.000u      0.000s      0.001w     40 calls
JK: J2                      :      0.000u      0.000s      0.001w     40 calls
JK: K                       :      0.017u      0.000s      0.012w     20 calls
JK: K1                      :      0.017u      0.000s      0.010w     40 calls
JK: K2                      :      0.000u      0.000s      0.002w     40 calls
JK: AO2USO                  :      0.000u      0.000s      0.000w     29 calls
HF: Form F                  :      0.000u      0.000s      0.001w     29 calls
HF: DIIS                    :      0.000u      0.000s      0.003w     29 calls
DIISManager::add_entry      :      0.000u      0.000s      0.001w     10 calls
DIISManager::extrapolate    :      0.000u      0.000s      0.001w      9 calls
bMatrix setup               :      0.000u      0.000s      0.000w      9 calls
bMatrix pseudoinverse       :      0.000u      0.000s      0.000w      9 calls
New vector                  :      0.000u      0.000s      0.000w      9 calls
HF: Form C                  :      0.017u      0.000s      0.003w     29 calls
HF: Form D                  :      0.000u      0.000s      0.000w     29 calls

-----------------------------------------------------------
JK: (A|mn)                  :      0.033u      0.000s      0.018w      1 calls
JK: (A|Q)^-1/2              :      0.017u      0.000s      0.012w      1 calls
JK: (Q|mn)                  :      0.000u      0.000s      0.000w      1 calls
HF: Form H                  :      0.000u      0.017s      0.003w      1 calls
HF: Form S/X                :      0.000u      0.000s      0.000w      1 calls
HF: Guess                   :      0.000u      0.000s      0.000w      1 calls
HF: Form G                  :      0.750u      0.000s      0.492w     29 calls
| JK: D                     :      0.000u      0.000s      0.000w     29 calls
| JK: USO2AO                :      0.000u      0.000s      0.000w     29 calls
| JK: JK                    :      0.750u      0.000s      0.491w     29 calls
| | JK: J                   :      0.000u      0.000s      0.002w     20 calls
| | | JK: J1                :      0.000u      0.000s      0.001w     40 calls
| | | JK: J2                :      0.000u      0.000s      0.001w     40 calls
| | JK: K                   :      0.017u      0.000s      0.012w     20 calls
| | | JK: K1                :      0.017u      0.000s      0.010w     40 calls
| | | JK: K2                :      0.000u      0.000s      0.002w     40 calls
| JK: AO2USO                :      0.000u      0.000s      0.000w     29 calls
HF: Form F                  :      0.000u      0.000s      0.001w     29 calls
HF: DIIS                    :      0.000u      0.000s      0.003w     29 calls
| DIISManager::add_entry    :      0.000u      0.000s      0.001w     10 calls
| DIISManager::extrapolate  :      0.000u      0.000s      0.001w      9 calls
| | bMatrix setup           :      0.000u      0.000s      0.000w      9 calls
| | bMatrix pseudoinverse   :      0.000u      0.000s      0.000w      9 calls
| | New vector              :      0.000u      0.000s      0.000w      9 calls
HF: Form C                  :      0.017u      0.000s      0.003w     29 calls
HF: Form D                  :      0.000u      0.000s      0.000w     29 calls

***********************************************************

Host: shannon-book.local

Timers On : Thu Jan 17 17:16:33 2019
Timers Off: Thu Jan 17 17:16:34 2019

Wall Time:        1.62 seconds

JK: (A|mn)                  :      0.033u      0.000s      0.017w      1 calls
JK: (A|Q)^-1/2              :      0.017u      0.000s      0.014w      1 calls
JK: (Q|mn)                  :      0.000u      0.000s      0.000w      1 calls
HF: Form H                  :      0.017u      0.017s      0.003w      1 calls
HF: Form S/X                :      0.000u      0.000s      0.000w      1 calls
HF: Guess                   :      0.000u      0.000s      0.000w      1 calls
HF: Form G                  :      0.750u      0.000s      0.495w     29 calls
JK: D                       :      0.000u      0.000s      0.000w     29 calls
JK: USO2AO                  :      0.000u      0.000s      0.000w     29 calls
JK: JK                      :      0.750u      0.000s      0.494w     29 calls
JK: J                       :      0.000u      0.000s      0.002w     20 calls
JK: J1                      :      0.000u      0.000s      0.001w     40 calls
JK: J2                      :      0.000u      0.000s      0.001w     40 calls
JK: K                       :      0.017u      0.000s      0.012w     20 calls
JK: K1                      :      0.017u      0.000s      0.010w     40 calls
JK: K2                      :      0.000u      0.000s      0.002w     40 calls
JK: AO2USO                  :      0.000u      0.000s      0.000w     29 calls
HF: Form F                  :      0.000u      0.000s      0.001w     29 calls
HF: DIIS                    :      0.000u      0.000s      0.003w     29 calls
DIISManager::add_entry      :      0.000u      0.000s      0.001w     10 calls
DIISManager::extrapolate    :      0.000u      0.000s      0.001w      9 calls
bMatrix setup               :      0.000u      0.000s      0.000w      9 calls
bMatrix pseudoinverse       :      0.000u      0.000s      0.000w      9 calls
New vector                  :      0.000u      0.000s      0.000w      9 calls
HF: Form C                  :      0.000u      0.000s      0.003w     29 calls
HF: Form D                  :      0.000u      0.000s      0.000w     29 calls

-----------------------------------------------------------
JK: (A|mn)                  :      0.033u      0.000s      0.017w      1 calls
JK: (A|Q)^-1/2              :      0.017u      0.000s      0.014w      1 calls
JK: (Q|mn)                  :      0.000u      0.000s      0.000w      1 calls
HF: Form H                  :      0.017u      0.017s      0.003w      1 calls
HF: Form S/X                :      0.000u      0.000s      0.000w      1 calls
HF: Guess                   :      0.000u      0.000s      0.000w      1 calls
HF: Form G                  :      0.750u      0.000s      0.495w     29 calls
| JK: D                     :      0.000u      0.000s      0.000w     29 calls
| JK: USO2AO                :      0.000u      0.000s      0.000w     29 calls
| JK: JK                    :      0.750u      0.000s      0.494w     29 calls
| | JK: J                   :      0.000u      0.000s      0.002w     20 calls
| | | JK: J1                :      0.000u      0.000s      0.001w     40 calls
| | | JK: J2                :      0.000u      0.000s      0.001w     40 calls
| | JK: K                   :      0.017u      0.000s      0.012w     20 calls
| | | JK: K1                :      0.017u      0.000s      0.010w     40 calls
| | | JK: K2                :      0.000u      0.000s      0.002w     40 calls
| JK: AO2USO                :      0.000u      0.000s      0.000w     29 calls
HF: Form F                  :      0.000u      0.000s      0.001w     29 calls
HF: DIIS                    :      0.000u      0.000s      0.003w     29 calls
| DIISManager::add_entry    :      0.000u      0.000s      0.001w     10 calls
| DIISManager::extrapolate  :      0.000u      0.000s      0.001w      9 calls
| | bMatrix setup           :      0.000u      0.000s      0.000w      9 calls
| | bMatrix pseudoinverse   :      0.000u      0.000s      0.000w      9 calls
| | New vector              :      0.000u      0.000s      0.000w      9 calls
HF: Form C                  :      0.000u      0.000s      0.003w     29 calls
HF: Form D                  :      0.000u      0.000s      0.000w     29 calls

***********************************************************

Host: shannon-book.local

Timers On : Thu Jan 17 17:17:23 2019
Timers Off: Thu Jan 17 17:17:25 2019

Wall Time:        2.01 seconds

JK: (A|mn)                  :      0.017u      0.000s      0.018w      1 calls
JK: (A|Q)^-1/2              :      0.033u      0.000s      0.012w      1 calls
JK: (Q|mn)                  :      0.000u      0.000s      0.000w      1 calls
HF: Form H                  :      0.000u      0.000s      0.004w      1 calls
HF: Form S/X                :      0.000u      0.000s      0.000w      1 calls
HF: Guess                   :      0.000u      0.000s      0.000w      1 calls
HF: Form G                  :      0.767u      0.017s      0.507w     29 calls
JK: D                       :      0.000u      0.000s      0.000w     29 calls
JK: USO2AO                  :      0.000u      0.000s      0.000w     29 calls
JK: JK                      :      0.767u      0.017s      0.506w     29 calls
JK: J                       :      0.000u      0.000s      0.002w     20 calls
JK: J1                      :      0.000u      0.000s      0.001w     40 calls
JK: J2                      :      0.000u      0.000s      0.001w     40 calls
JK: K                       :      0.033u      0.000s      0.012w     20 calls
JK: K1                      :      0.033u      0.000s      0.010w     40 calls
JK: K2                      :      0.000u      0.000s      0.002w     40 calls
JK: AO2USO                  :      0.000u      0.000s      0.000w     29 calls
HF: Form F                  :      0.000u      0.000s      0.001w     29 calls
HF: DIIS                    :      0.000u      0.000s      0.003w     29 calls
DIISManager::add_entry      :      0.000u      0.000s      0.001w     10 calls
DIISManager::extrapolate    :      0.000u      0.000s      0.001w      9 calls
bMatrix setup               :      0.000u      0.000s      0.000w      9 calls
bMatrix pseudoinverse       :      0.000u      0.000s      0.000w      9 calls
New vector                  :      0.000u      0.000s      0.000w      9 calls
HF: Form C                  :      0.000u      0.000s      0.004w     29 calls
HF: Form D                  :      0.000u      0.000s      0.000w     29 calls

-----------------------------------------------------------
JK: (A|mn)                  :      0.017u      0.000s      0.018w      1 calls
JK: (A|Q)^-1/2              :      0.033u      0.000s      0.012w      1 calls
JK: (Q|mn)                  :      0.000u      0.000s      0.000w      1 calls
HF: Form H                  :      0.000u      0.000s      0.004w      1 calls
HF: Form S/X                :      0.000u      0.000s      0.000w      1 calls
HF: Guess                   :      0.000u      0.000s      0.000w      1 calls
HF: Form G                  :      0.767u      0.017s      0.507w     29 calls
| JK: D                     :      0.000u      0.000s      0.000w     29 calls
| JK: USO2AO                :      0.000u      0.000s      0.000w     29 calls
| JK: JK                    :      0.767u      0.017s      0.506w     29 calls
| | JK: J                   :      0.000u      0.000s      0.002w     20 calls
| | | JK: J1                :      0.000u      0.000s      0.001w     40 calls
| | | JK: J2                :      0.000u      0.000s      0.001w     40 calls
| | JK: K                   :      0.033u      0.000s      0.012w     20 calls
| | | JK: K1                :      0.033u      0.000s      0.010w     40 calls
| | | JK: K2                :      0.000u      0.000s      0.002w     40 calls
| JK: AO2USO                :      0.000u      0.000s      0.000w     29 calls
HF: Form F                  :      0.000u      0.000s      0.001w     29 calls
HF: DIIS                    :      0.000u      0.000s      0.003w     29 calls
| DIISManager::add_entry    :      0.000u      0.000s      0.001w     10 calls
| DIISManager::extrapolate  :      0.000u      0.000s      0.001w      9 calls
| | bMatrix setup           :      0.000u      0.000s      0.000w      9 calls
| | bMatrix pseudoinverse   :      0.000u      0.000s      0.000w      9 calls
| | New vector              :      0.000u      0.000s      0.000w      9 calls
HF: Form C                  :      0.000u      0.000s      0.004w     29 calls
HF: Form D                  :      0.000u      0.000s      0.000w     29 calls

***********************************************************

Host: shannon-book.local

Timers On : Thu Jan 17 17:20:56 2019
Timers Off: Thu Jan 17 17:20:58 2019

Wall Time:        1.98 seconds

JK: (A|mn)                  :      0.033u      0.000s      0.017w      1 calls
JK: (A|Q)^-1/2              :      0.017u      0.000s      0.012w      1 calls
JK: (Q|mn)                  :      0.000u      0.000s      0.000w      1 calls
HF: Form H                  :      0.000u      0.000s      0.003w      1 calls
HF: Form S/X                :      0.000u      0.000s      0.000w      1 calls
HF: Guess                   :      0.000u      0.000s      0.000w      1 calls
HF: Form G                  :      0.750u      0.017s      0.489w     29 calls
JK: D                       :      0.000u      0.000s      0.000w     29 calls
JK: USO2AO                  :      0.000u      0.000s      0.000w     29 calls
JK: JK                      :      0.750u      0.017s      0.488w     29 calls
JK: J                       :      0.000u      0.000s      0.002w     20 calls
JK: J1                      :      0.000u      0.000s      0.001w     40 calls
JK: J2                      :      0.000u      0.000s      0.001w     40 calls
JK: K                       :      0.017u      0.000s      0.012w     20 calls
JK: K1                      :      0.017u      0.000s      0.010w     40 calls
JK: K2                      :      0.000u      0.000s      0.002w     40 calls
JK: AO2USO                  :      0.000u      0.000s      0.000w     29 calls
HF: Form F                  :      0.000u      0.000s      0.001w     29 calls
HF: DIIS                    :      0.000u      0.000s      0.003w     29 calls
DIISManager::add_entry      :      0.000u      0.000s      0.001w     10 calls
DIISManager::extrapolate    :      0.000u      0.000s      0.001w      9 calls
bMatrix setup               :      0.000u      0.000s      0.000w      9 calls
bMatrix pseudoinverse       :      0.000u      0.000s      0.000w      9 calls
New vector                  :      0.000u      0.000s      0.000w      9 calls
HF: Form C                  :      0.017u      0.000s      0.003w     29 calls
HF: Form D                  :      0.000u      0.000s      0.000w     29 calls

-----------------------------------------------------------
JK: (A|mn)                  :      0.033u      0.000s      0.017w      1 calls
JK: (A|Q)^-1/2              :      0.017u      0.000s      0.012w      1 calls
JK: (Q|mn)                  :      0.000u      0.000s      0.000w      1 calls
HF: Form H                  :      0.000u      0.000s      0.003w      1 calls
HF: Form S/X                :      0.000u      0.000s      0.000w      1 calls
HF: Guess                   :      0.000u      0.000s      0.000w      1 calls
HF: Form G                  :      0.750u      0.017s      0.489w     29 calls
| JK: D                     :      0.000u      0.000s      0.000w     29 calls
| JK: USO2AO                :      0.000u      0.000s      0.000w     29 calls
| JK: JK                    :      0.750u      0.017s      0.488w     29 calls
| | JK: J                   :      0.000u      0.000s      0.002w     20 calls
| | | JK: J1                :      0.000u      0.000s      0.001w     40 calls
| | | JK: J2                :      0.000u      0.000s      0.001w     40 calls
| | JK: K                   :      0.017u      0.000s      0.012w     20 calls
| | | JK: K1                :      0.017u      0.000s      0.010w     40 calls
| | | JK: K2                :      0.000u      0.000s      0.002w     40 calls
| JK: AO2USO                :      0.000u      0.000s      0.000w     29 calls
HF: Form F                  :      0.000u      0.000s      0.001w     29 calls
HF: DIIS                    :      0.000u      0.000s      0.003w     29 calls
| DIISManager::add_entry    :      0.000u      0.000s      0.001w     10 calls
| DIISManager::extrapolate  :      0.000u      0.000s      0.001w      9 calls
| | bMatrix setup           :      0.000u      0.000s      0.000w      9 calls
| | bMatrix pseudoinverse   :      0.000u      0.000s      0.000w      9 calls
| | New vector              :      0.000u      0.000s      0.000w      9 calls
HF: Form C                  :      0.017u      0.000s      0.003w     29 calls
HF: Form D                  :      0.000u      0.000s      0.000w     29 calls

***********************************************************

Host: shannon-book.local

Timers On : Thu Jan 17 17:21:10 2019
Timers Off: Thu Jan 17 17:21:12 2019

Wall Time:        2.07 seconds

JK: (A|mn)                  :      0.033u      0.000s      0.022w      1 calls
JK: (A|Q)^-1/2              :      0.033u      0.000s      0.013w      1 calls
JK: (Q|mn)                  :      0.000u      0.000s      0.001w      1 calls
HF: Form H                  :      0.000u      0.000s      0.003w      1 calls
HF: Form S/X                :      0.000u      0.000s      0.000w      1 calls
HF: Guess                   :      0.000u      0.000s      0.000w      1 calls
HF: Form G                  :      0.817u      0.000s      0.516w     29 calls
JK: D                       :      0.000u      0.000s      0.000w     29 calls
JK: USO2AO                  :      0.000u      0.000s      0.000w     29 calls
JK: JK                      :      0.817u      0.000s      0.515w     29 calls
JK: J                       :      0.017u      0.000s      0.002w     20 calls
JK: J1                      :      0.017u      0.000s      0.001w     40 calls
JK: J2                      :      0.000u      0.000s      0.001w     40 calls
JK: K                       :      0.017u      0.000s      0.012w     20 calls
JK: K1                      :      0.017u      0.000s      0.010w     40 calls
JK: K2                      :      0.000u      0.000s      0.002w     40 calls
JK: AO2USO                  :      0.000u      0.000s      0.000w     29 calls
HF: Form F                  :      0.000u      0.000s      0.001w     29 calls
HF: DIIS                    :      0.000u      0.000s      0.003w     29 calls
DIISManager::add_entry      :      0.000u      0.000s      0.001w     10 calls
DIISManager::extrapolate    :      0.000u      0.000s      0.001w      9 calls
bMatrix setup               :      0.000u      0.000s      0.000w      9 calls
bMatrix pseudoinverse       :      0.000u      0.000s      0.000w      9 calls
New vector                  :      0.000u      0.000s      0.000w      9 calls
HF: Form C                  :      0.000u      0.000s      0.003w     29 calls
HF: Form D                  :      0.000u      0.000s      0.000w     29 calls

-----------------------------------------------------------
JK: (A|mn)                  :      0.033u      0.000s      0.022w      1 calls
JK: (A|Q)^-1/2              :      0.033u      0.000s      0.013w      1 calls
JK: (Q|mn)                  :      0.000u      0.000s      0.001w      1 calls
HF: Form H                  :      0.000u      0.000s      0.003w      1 calls
HF: Form S/X                :      0.000u      0.000s      0.000w      1 calls
HF: Guess                   :      0.000u      0.000s      0.000w      1 calls
HF: Form G                  :      0.817u      0.000s      0.516w     29 calls
| JK: D                     :      0.000u      0.000s      0.000w     29 calls
| JK: USO2AO                :      0.000u      0.000s      0.000w     29 calls
| JK: JK                    :      0.817u      0.000s      0.515w     29 calls
| | JK: J                   :      0.017u      0.000s      0.002w     20 calls
| | | JK: J1                :      0.017u      0.000s      0.001w     40 calls
| | | JK: J2                :      0.000u      0.000s      0.001w     40 calls
| | JK: K                   :      0.017u      0.000s      0.012w     20 calls
| | | JK: K1                :      0.017u      0.000s      0.010w     40 calls
| | | JK: K2                :      0.000u      0.000s      0.002w     40 calls
| JK: AO2USO                :      0.000u      0.000s      0.000w     29 calls
HF: Form F                  :      0.000u      0.000s      0.001w     29 calls
HF: DIIS                    :      0.000u      0.000s      0.003w     29 calls
| DIISManager::add_entry    :      0.000u      0.000s      0.001w     10 calls
| DIISManager::extrapolate  :      0.000u      0.000s      0.001w      9 calls
| | bMatrix setup           :      0.000u      0.000s      0.000w      9 calls
| | bMatrix pseudoinverse   :      0.000u      0.000s      0.000w      9 calls
| | New vector              :      0.000u      0.000s      0.000w      9 calls
HF: Form C                  :      0.000u      0.000s      0.003w     29 calls
HF: Form D                  :      0.000u      0.000s      0.000w     29 calls

***********************************************************

Host: shannon-book.local

Timers On : Thu Jan 17 17:23:33 2019
Timers Off: Thu Jan 17 17:23:35 2019

Wall Time:        1.99 seconds

JK: (A|mn)                  :      0.033u      0.000s      0.016w      1 calls
JK: (A|Q)^-1/2              :      0.017u      0.000s      0.014w      1 calls
JK: (Q|mn)                  :      0.000u      0.000s      0.000w      1 calls
[...]
bMatrix setup               :      0.000u      0.000s      0.000w     12 calls
bMatrix pseudoinverse       :      0.000u      0.000s      0.000w     12 calls
New vector                  :      0.000u      0.000s      0.000w     12 calls
HF: Form C                  :      0.017u      0.000s      0.003w     32 calls
HF: Form D                  :      0.000u      0.000s      0.000w     32 calls

-----------------------------------------------------------
JK: (A|mn)                  :      0.050u      0.000s      0.024w      1 calls
JK: (A|Q)^-1/2              :      0.033u      0.000s      0.026w      1 calls
JK: (Q|mn)                  :      0.000u      0.000s      0.001w      1 calls
HF: Form H                  :      0.000u      0.017s      0.015w      1 calls
HF: Form S/X                :      0.000u      0.000s      0.000w      1 calls
HF: Guess                   :      0.000u      0.000s      0.000w      1 calls
HF: Form G                  :      1.050u      0.000s      0.631w     32 calls
| JK: D                     :      0.000u      0.000s      0.000w     32 calls
| JK: USO2AO                :      0.000u      0.000s      0.000w     32 calls
| JK: JK                    :      1.050u      0.000s      0.630w     32 calls
| | JK: J                   :      0.000u      0.000s      0.002w     23 calls
| | | JK: J1                :      0.000u      0.000s      0.001w     46 calls
| | | JK: J2                :      0.000u      0.000s      0.001w     46 calls
| | JK: K                   :      0.017u      0.000s      0.018w     23 calls
| | | JK: K1                :      0.017u      0.000s      0.016w     46 calls
| | | JK: K2                :      0.000u      0.000s      0.002w     46 calls
| JK: AO2USO                :      0.000u      0.000s      0.000w     32 calls
HF: Form F                  :      0.000u      0.000s      0.001w     32 calls
HF: DIIS                    :      0.000u      0.000s      0.011w     32 calls
| DIISManager::add_entry    :      0.000u      0.000s      0.009w     13 calls
| DIISManager::extrapolate  :      0.000u      0.000s      0.001w     12 calls
| | bMatrix setup           :      0.000u      0.000s      0.000w     12 calls
| | bMatrix pseudoinverse   :      0.000u      0.000s      0.000w     12 calls
| | New vector              :      0.000u      0.000s      0.000w     12 calls
HF: Form C                  :      0.017u      0.000s      0.003w     32 calls
HF: Form D                  :      0.000u      0.000s      0.000w     32 calls

***********************************************************

Host: nr113

Timers On : Wed Feb  6 12:13:17 2019
Timers Off: Wed Feb  6 12:13:26 2019

Wall Time:        9.03 seconds

JK: (A|mn)                  :      0.033u      0.000s      0.024w      1 calls
JK: (A|Q)^-1/2              :      0.033u      0.017s      0.026w      1 calls
JK: (Q|mn)                  :      0.017u      0.000s      0.001w      1 calls
HF: Form H                  :      0.000u      0.000s      0.013w      1 calls
HF: Form S/X                :      0.000u      0.000s      0.000w      1 calls
HF: Guess                   :      0.000u      0.000s      0.000w      1 calls
HF: Form G                  :      1.067u      0.000s      0.630w     32 calls
JK: D                       :      0.000u      0.000s      0.000w     32 calls
JK: USO2AO                  :      0.000u      0.000s      0.000w     32 calls
JK: JK                      :      1.067u      0.000s      0.629w     32 calls
JK: J                       :      0.000u      0.000s      0.002w     23 calls
JK: J1                      :      0.000u      0.000s      0.001w     46 calls
JK: J2                      :      0.000u      0.000s      0.001w     46 calls
JK: K                       :      0.033u      0.000s      0.017w     23 calls
JK: K1                      :      0.033u      0.000s      0.015w     46 calls
JK: K2                      :      0.000u      0.000s      0.002w     46 calls
JK: AO2USO                  :      0.000u      0.000s      0.000w     32 calls
HF: Form F                  :      0.000u      0.000s      0.001w     32 calls
HF: DIIS                    :      0.000u      0.000s      0.004w     32 calls
DIISManager::add_entry      :      0.000u      0.000s      0.002w     13 calls
DIISManager::extrapolate    :      0.000u      0.000s      0.001w     12 calls
bMatrix setup               :      0.000u      0.000s      0.000w     12 calls
bMatrix pseudoinverse       :      0.000u      0.000s      0.000w     12 calls
New vector                  :      0.000u      0.000s      0.000w     12 calls
HF: Form C                  :      0.000u      0.000s      0.003w     32 calls
HF: Form D                  :      0.000u      0.000s      0.000w     32 calls

-----------------------------------------------------------
JK: (A|mn)                  :      0.033u      0.000s      0.024w      1 calls
JK: (A|Q)^-1/2              :      0.033u      0.017s      0.026w      1 calls
JK: (Q|mn)                  :      0.017u      0.000s      0.001w      1 calls
HF: Form H                  :      0.000u      0.000s      0.013w      1 calls
HF: Form S/X                :      0.000u      0.000s      0.000w      1 calls
HF: Guess                   :      0.000u      0.000s      0.000w      1 calls
HF: Form G                  :      1.067u      0.000s      0.630w     32 calls
| JK: D                     :      0.000u      0.000s      0.000w     32 calls
| JK: USO2AO                :      0.000u      0.000s      0.000w     32 calls
| JK: JK                    :      1.067u      0.000s      0.629w     32 calls
| | JK: J                   :      0.000u      0.000s      0.002w     23 calls
| | | JK: J1                :      0.000u      0.000s      0.001w     46 calls
| | | JK: J2                :      0.000u      0.000s      0.001w     46 calls
| | JK: K                   :      0.033u      0.000s      0.017w     23 calls
| | | JK: K1                :      0.033u      0.000s      0.015w     46 calls
| | | JK: K2                :      0.000u      0.000s      0.002w     46 calls
| JK: AO2USO                :      0.000u      0.000s      0.000w     32 calls
HF: Form F                  :      0.000u      0.000s      0.001w     32 calls
HF: DIIS                    :      0.000u      0.000s      0.004w     32 calls
| DIISManager::add_entry    :      0.000u      0.000s      0.002w     13 calls
| DIISManager::extrapolate  :      0.000u      0.000s      0.001w     12 calls
| | bMatrix setup           :      0.000u      0.000s      0.000w     12 calls
| | bMatrix pseudoinverse   :      0.000u      0.000s      0.000w     12 calls
| | New vector              :      0.000u      0.000s      0.000w     12 calls
HF: Form C                  :      0.000u      0.000s      0.003w     32 calls
HF: Form D                  :      0.000u      0.000s      0.000w     32 calls

***********************************************************

Host: nr113

Timers On : Wed Feb  6 12:16:23 2019
Timers Off: Wed Feb  6 12:16:34 2019

Wall Time:       10.80 seconds

JK: (A|mn)                  :      0.050u      0.000s      0.024w      1 calls
JK: (A|Q)^-1/2              :      0.033u      0.017s      0.026w      1 calls
JK: (Q|mn)                  :      0.000u      0.000s      0.001w      1 calls
HF: Form H                  :      0.000u      0.000s      0.016w      1 calls
HF: Form S/X                :      0.000u      0.000s      0.000w      1 calls
HF: Guess                   :      0.000u      0.000s      0.000w      1 calls
HF: Form G                  :      1.050u      0.000s      0.630w     32 calls
JK: D                       :      0.000u      0.000s      0.000w     32 calls
JK: USO2AO                  :      0.000u      0.000s      0.000w     32 calls
JK: JK                      :      1.050u      0.000s      0.629w     32 calls
JK: J                       :      0.000u      0.000s      0.002w     23 calls
JK: J1                      :      0.000u      0.000s      0.001w     46 calls
JK: J2                      :      0.000u      0.000s      0.001w     46 calls
JK: K                       :      0.033u      0.000s      0.019w     23 calls
JK: K1                      :      0.033u      0.000s      0.016w     46 calls
JK: K2                      :      0.000u      0.000s      0.002w     46 calls
JK: AO2USO                  :      0.000u      0.000s      0.000w     32 calls
HF: Form F                  :      0.000u      0.000s      0.001w     32 calls
HF: DIIS                    :      0.000u      0.000s      0.004w     32 calls
DIISManager::add_entry      :      0.000u      0.000s      0.003w     13 calls
DIISManager::extrapolate    :      0.000u      0.000s      0.001w     12 calls
bMatrix setup               :      0.000u      0.000s      0.000w     12 calls
bMatrix pseudoinverse       :      0.000u      0.000s      0.000w     12 calls
New vector                  :      0.000u      0.000s      0.000w     12 calls
HF: Form C                  :      0.000u      0.000s      0.003w     32 calls
HF: Form D                  :      0.000u      0.000s      0.000w     32 calls

-----------------------------------------------------------
JK: (A|mn)                  :      0.050u      0.000s      0.024w      1 calls
JK: (A|Q)^-1/2              :      0.033u      0.017s      0.026w      1 calls
JK: (Q|mn)                  :      0.000u      0.000s      0.001w      1 calls
HF: Form H                  :      0.000u      0.000s      0.016w      1 calls
HF: Form S/X                :      0.000u      0.000s      0.000w      1 calls
HF: Guess                   :      0.000u      0.000s      0.000w      1 calls
HF: Form G                  :      1.050u      0.000s      0.630w     32 calls
| JK: D                     :      0.000u      0.000s      0.000w     32 calls
| JK: USO2AO                :      0.000u      0.000s      0.000w     32 calls
| JK: JK                    :      1.050u      0.000s      0.629w     32 calls
| | JK: J                   :      0.000u      0.000s      0.002w     23 calls
| | | JK: J1                :      0.000u      0.000s      0.001w     46 calls
| | | JK: J2                :      0.000u      0.000s      0.001w     46 calls
| | JK: K                   :      0.033u      0.000s      0.019w     23 calls
| | | JK: K1                :      0.033u      0.000s      0.016w     46 calls
| | | JK: K2                :      0.000u      0.000s      0.002w     46 calls
| JK: AO2USO                :      0.000u      0.000s      0.000w     32 calls
HF: Form F                  :      0.000u      0.000s      0.001w     32 calls
HF: DIIS                    :      0.000u      0.000s      0.004w     32 calls
| DIISManager::add_entry    :      0.000u      0.000s      0.003w     13 calls
| DIISManager::extrapolate  :      0.000u      0.000s      0.001w     12 calls
| | bMatrix setup           :      0.000u      0.000s      0.000w     12 calls
| | bMatrix pseudoinverse   :      0.000u      0.000s      0.000w     12 calls
| | New vector              :      0.000u      0.000s      0.000w     12 calls
HF: Form C                  :      0.000u      0.000s      0.003w     32 calls
HF: Form D                  :      0.000u      0.000s      0.000w     32 calls

***********************************************************

Host: nr113

Timers On : Wed Feb  6 12:17:25 2019
Timers Off: Wed Feb  6 12:17:36 2019

Wall Time:       11.39 seconds

JK: (A|mn)                  :      0.033u      0.000s      0.024w      1 calls
JK: (A|Q)^-1/2              :      0.033u      0.000s      0.026w      1 calls
JK: (Q|mn)                  :      0.000u      0.017s      0.001w      1 calls
HF: Form H                  :      0.000u      0.000s      0.014w      1 calls
HF: Form S/X                :      0.000u      0.000s      0.000w      1 calls
HF: Guess                   :      0.000u      0.000s      0.000w      1 calls
HF: Form G                  :      1.033u      0.000s      0.632w     32 calls
JK: D                       :      0.000u      0.000s      0.000w     32 calls
JK: USO2AO                  :      0.000u      0.000s      0.000w     32 calls
JK: JK                      :      1.033u      0.000s      0.631w     32 calls
JK: J                       :      0.000u      0.000s      0.002w     23 calls
JK: J1                      :      0.000u      0.000s      0.001w     46 calls
JK: J2                      :      0.000u      0.000s      0.001w     46 calls
JK: K                       :      0.017u      0.000s      0.018w     23 calls
JK: K1                      :      0.017u      0.000s      0.016w     46 calls
JK: K2                      :      0.000u      0.000s      0.002w     46 calls
JK: AO2USO                  :      0.000u      0.000s      0.000w     32 calls
HF: Form F                  :      0.000u      0.000s      0.001w     32 calls
HF: DIIS                    :      0.000u      0.000s      0.004w     32 calls
DIISManager::add_entry      :      0.000u      0.000s      0.003w     13 calls
DIISManager::extrapolate    :      0.000u      0.000s      0.001w     12 calls
bMatrix setup               :      0.000u      0.000s      0.000w     12 calls
bMatrix pseudoinverse       :      0.000u      0.000s      0.000w     12 calls
New vector                  :      0.000u      0.000s      0.000w     12 calls
HF: Form C                  :      0.017u      0.000s      0.003w     32 calls
HF: Form D                  :      0.000u      0.000s      0.000w     32 calls

-----------------------------------------------------------
JK: (A|mn)                  :      0.033u      0.000s      0.024w      1 calls
JK: (A|Q)^-1/2              :      0.033u      0.000s      0.026w      1 calls
JK: (Q|mn)                  :      0.000u      0.017s      0.001w      1 calls
HF: Form H                  :      0.000u      0.000s      0.014w      1 calls
HF: Form S/X                :      0.000u      0.000s      0.000w      1 calls
HF: Guess                   :      0.000u      0.000s      0.000w      1 calls
HF: Form G                  :      1.033u      0.000s      0.632w     32 calls
| JK: D                     :      0.000u      0.000s      0.000w     32 calls
| JK: USO2AO                :      0.000u      0.000s      0.000w     32 calls
| JK: JK                    :      1.033u      0.000s      0.631w     32 calls
| | JK: J                   :      0.000u      0.000s      0.002w     23 calls
| | | JK: J1                :      0.000u      0.000s      0.001w     46 calls
| | | JK: J2                :      0.000u      0.000s      0.001w     46 calls
| | JK: K                   :      0.017u      0.000s      0.018w     23 calls
| | | JK: K1                :      0.017u      0.000s      0.016w     46 calls
| | | JK: K2                :      0.000u      0.000s      0.002w     46 calls
| JK: AO2USO                :      0.000u      0.000s      0.000w     32 calls
HF: Form F                  :      0.000u      0.000s      0.001w     32 calls
HF: DIIS                    :      0.000u      0.000s      0.004w     32 calls
| DIISManager::add_entry    :      0.000u      0.000s      0.003w     13 calls
| DIISManager::extrapolate  :      0.000u      0.000s      0.001w     12 calls
| | bMatrix setup           :      0.000u      0.000s      0.000w     12 calls
| | bMatrix pseudoinverse   :      0.000u      0.000s      0.000w     12 calls
| | New vector              :      0.000u      0.000s      0.000w     12 calls
HF: Form C                  :      0.017u      0.000s      0.003w     32 calls
HF: Form D                  :      0.000u      0.000s      0.000w     32 calls

***********************************************************

Host: nr113

Timers On : Wed Feb  6 12:18:17 2019
Timers Off: Wed Feb  6 12:18:28 2019

Wall Time:       11.31 seconds

JK: (A|mn)                  :      0.033u      0.000s      0.024w      1 calls
JK: (A|Q)^-1/2              :      0.033u      0.017s      0.025w      1 calls
JK: (Q|mn)                  :      0.000u      0.000s      0.001w      1 calls
HF: Form H                  :      0.000u      0.000s      0.016w      1 calls
HF: Form S/X                :      0.000u      0.000s      0.000w      1 calls
HF: Guess                   :      0.000u      0.000s      0.000w      1 calls
HF: Form G                  :      1.017u      0.000s      0.632w     32 calls
JK: D                       :      0.000u      0.000s      0.000w     32 calls
JK: USO2AO                  :      0.000u      0.000s      0.000w     32 calls
JK: JK                      :      1.017u      0.000s      0.631w     32 calls
JK: J                       :      0.000u      0.000s      0.002w     23 calls
JK: J1                      :      0.000u      0.000s      0.001w     46 calls
JK: J2                      :      0.000u      0.000s      0.001w     46 calls
JK: K                       :      0.017u      0.000s      0.019w     23 calls
JK: K1                      :      0.000u      0.000s      0.017w     46 calls
JK: K2                      :      0.017u      0.000s      0.002w     46 calls
JK: AO2USO                  :      0.000u      0.000s      0.000w     32 calls
HF: Form F                  :      0.017u      0.000s      0.001w     32 calls
HF: DIIS                    :      0.017u      0.000s      0.004w     32 calls
DIISManager::add_entry      :      0.017u      0.000s      0.002w     13 calls
DIISManager::extrapolate    :      0.000u      0.000s      0.001w     12 calls
bMatrix setup               :      0.000u      0.000s      0.000w     12 calls
bMatrix pseudoinverse       :      0.000u      0.000s      0.000w     12 calls
New vector                  :      0.000u      0.000s      0.000w     12 calls
HF: Form C                  :      0.017u      0.000s      0.003w     32 calls
HF: Form D                  :      0.000u      0.000s      0.000w     32 calls

-----------------------------------------------------------
JK: (A|mn)                  :      0.033u      0.000s      0.024w      1 calls
JK: (A|Q)^-1/2              :      0.033u      0.017s      0.025w      1 calls
JK: (Q|mn)                  :      0.000u      0.000s      0.001w      1 calls
HF: Form H                  :      0.000u      0.000s      0.016w      1 calls
HF: Form S/X                :      0.000u      0.000s      0.000w      1 calls
HF: Guess                   :      0.000u      0.000s      0.000w      1 calls
HF: Form G                  :      1.017u      0.000s      0.632w     32 calls
| JK: D                     :      0.000u      0.000s      0.000w     32 calls
| JK: USO2AO                :      0.000u      0.000s      0.000w     32 calls
| JK: JK                    :      1.017u      0.000s      0.631w     32 calls
| | JK: J                   :      0.000u      0.000s      0.002w     23 calls
| | | JK: J1                :      0.000u      0.000s      0.001w     46 calls
| | | JK: J2                :      0.000u      0.000s      0.001w     46 calls
| | JK: K                   :      0.017u      0.000s      0.019w     23 calls
| | | JK: K1                :      0.000u      0.000s      0.017w     46 calls
| | | JK: K2                :      0.017u      0.000s      0.002w     46 calls
| JK: AO2USO                :      0.000u      0.000s      0.000w     32 calls
HF: Form F                  :      0.017u      0.000s      0.001w     32 calls
HF: DIIS                    :      0.017u      0.000s      0.004w     32 calls
| DIISManager::add_entry    :      0.017u      0.000s      0.002w     13 calls
| DIISManager::extrapolate  :      0.000u      0.000s      0.001w     12 calls
| | bMatrix setup           :      0.000u      0.000s      0.000w     12 calls
| | bMatrix pseudoinverse   :      0.000u      0.000s      0.000w     12 calls
| | New vector              :      0.000u      0.000s      0.000w     12 calls
HF: Form C                  :      0.017u      0.000s      0.003w     32 calls
HF: Form D                  :      0.000u      0.000s      0.000w     32 calls

***********************************************************
