
Host: Spektor

Timers On : Wed Aug 21 16:42:19 2019
Timers Off: Wed Aug 21 16:42:20 2019

Wall Time:        0.42 seconds


-----------------------------------------------------------

***********************************************************
