
Host: shannon-book.local

Timers On : Thu Feb 21 10:25:02 2019
Timers Off: Thu Feb 21 10:25:16 2019

Wall Time:       14.15 seconds

JK: (A|mn)                  :      0.083u      0.000s      0.060w      4 calls
JK: (A|Q)^-1/2              :      0.067u      0.033s      0.052w      4 calls
JK: (Q|mn)                  :      0.000u      0.000s      0.001w      4 calls
HF: Form H                  :      0.000u      0.000s      0.019w      6 calls
HF: Form S/X                :      0.050u      0.000s      0.002w      6 calls
HF: Guess                   :      0.000u      0.000s      0.001w      6 calls
HF: Form G                  :      2.367u      0.000s      1.403w    132 calls
JK: D                       :      0.017u      0.000s      0.001w    132 calls
JK: USO2AO                  :      0.000u      0.000s      0.001w    132 calls
JK: JK                      :      2.350u      0.000s      1.400w    132 calls
JK: J                       :      0.017u      0.000s      0.005w     66 calls
JK: J1                      :      0.000u      0.000s      0.002w    132 calls
JK: J2                      :      0.017u      0.000s      0.002w    132 calls
JK: K                       :      0.050u      0.000s      0.042w     66 calls
JK: K1                      :      0.033u      0.000s      0.036w    132 calls
JK: K2                      :      0.017u      0.000s      0.006w    132 calls
PK computes JK              :      0.017u      0.000s      0.011w     34 calls
JK: AO2USO                  :      0.000u      0.000s      0.000w    132 calls
HF: Form F                  :      0.000u      0.000s      0.004w    132 calls
HF: DIIS                    :      0.000u      0.000s      0.016w    132 calls
DIISManager::add_entry      :      0.000u      0.000s      0.008w     60 calls
DIISManager::extrapolate    :      0.000u      0.000s      0.005w     56 calls
bMatrix setup               :      0.000u      0.000s      0.002w     56 calls
bMatrix pseudoinverse       :      0.000u      0.000s      0.001w     56 calls
New vector                  :      0.000u      0.000s      0.001w     56 calls
HF: Form C                  :      0.000u      0.000s      0.014w    132 calls
HF: Form D                  :      0.000u      0.000s      0.001w    132 calls
CIWave: CIvect write        :      0.017u      0.000s      0.004w    574 calls
CIWave: CIvect read         :      0.017u      0.033s      0.037w  10265 calls
CIWave: s2                  :      0.117u      0.000s      0.091w    561 calls
CIWave: s1                  :      0.050u      0.000s      0.023w   1275 calls
CIWave: s3                  :      0.333u      0.067s      0.256w   1071 calls
CIWave: s3_mt               :      0.217u      0.033s      0.162w  57647 calls
CIWave: opdm                :      0.033u      0.000s      0.005w      4 calls
Total PK formation time     :      0.183u      0.000s      0.111w      2 calls

-----------------------------------------------------------
JK: (A|mn)                  :      0.083u      0.000s      0.060w      4 calls
JK: (A|Q)^-1/2              :      0.067u      0.033s      0.052w      4 calls
JK: (Q|mn)                  :      0.000u      0.000s      0.001w      4 calls
HF: Form H                  :      0.000u      0.000s      0.019w      6 calls
HF: Form S/X                :      0.050u      0.000s      0.002w      6 calls
HF: Guess                   :      0.000u      0.000s      0.001w      6 calls
HF: Form G                  :      2.367u      0.000s      1.403w    132 calls
| JK: D                     :      0.017u      0.000s      0.001w    132 calls
| JK: USO2AO                :      0.000u      0.000s      0.001w    132 calls
| JK: JK                    :      2.350u      0.000s      1.400w    132 calls
| | JK: J                   :      0.017u      0.000s      0.005w     66 calls
| | | JK: J1                :      0.000u      0.000s      0.002w    132 calls
| | | JK: J2                :      0.017u      0.000s      0.002w    132 calls
| | JK: K                   :      0.050u      0.000s      0.042w     66 calls
| | | JK: K1                :      0.033u      0.000s      0.036w    132 calls
| | | JK: K2                :      0.017u      0.000s      0.006w    132 calls
| | PK computes JK          :      0.017u      0.000s      0.011w     34 calls
| JK: AO2USO                :      0.000u      0.000s      0.000w    132 calls
HF: Form F                  :      0.000u      0.000s      0.004w    132 calls
HF: DIIS                    :      0.000u      0.000s      0.016w    132 calls
| DIISManager::add_entry    :      0.000u      0.000s      0.008w     60 calls
| DIISManager::extrapolate  :      0.000u      0.000s      0.005w     56 calls
| | bMatrix setup           :      0.000u      0.000s      0.002w     56 calls
| | bMatrix pseudoinverse   :      0.000u      0.000s      0.001w     56 calls
| | New vector              :      0.000u      0.000s      0.001w     56 calls
HF: Form C                  :      0.000u      0.000s      0.014w    132 calls
HF: Form D                  :      0.000u      0.000s      0.001w    132 calls
CIWave: CIvect write        :      0.017u      0.000s      0.004w    574 calls
CIWave: CIvect read         :      0.017u      0.033s      0.037w  10237 calls
CIWave: s2                  :      0.117u      0.000s      0.091w    561 calls
CIWave: s1                  :      0.050u      0.000s      0.023w   1275 calls
CIWave: s3                  :      0.333u      0.067s      0.256w   1071 calls
| CIWave: s3_mt             :      0.217u      0.033s      0.162w  57647 calls
CIWave: opdm                :      0.033u      0.000s      0.005w      4 calls
| CIWave: CIvect read       :      0.000u      0.000s      0.000w     28 calls
Total PK formation time     :      0.183u      0.000s      0.111w      2 calls

***********************************************************

Host: shannon-book.local

Timers On : Thu Feb 21 10:29:27 2019
Timers Off: Thu Feb 21 10:29:35 2019

Wall Time:        8.01 seconds

JK: (A|mn)                  :      0.117u      0.000s      0.060w      4 calls
JK: (A|Q)^-1/2              :      0.083u      0.000s      0.047w      4 calls
JK: (Q|mn)                  :      0.000u      0.000s      0.001w      4 calls
HF: Form H                  :      0.000u      0.050s      0.033w      6 calls
HF: Form S/X                :      0.000u      0.000s      0.002w      6 calls
HF: Guess                   :      0.000u      0.000s      0.001w      6 calls
HF: Form G                  :      2.383u      0.000s      1.429w    132 calls
JK: D                       :      0.000u      0.000s      0.001w    132 calls
JK: USO2AO                  :      0.000u      0.000s      0.001w    132 calls
JK: JK                      :      2.367u      0.000s      1.425w    132 calls
JK: J                       :      0.000u      0.000s      0.005w     66 calls
JK: J1                      :      0.000u      0.000s      0.002w    132 calls
JK: J2                      :      0.000u      0.000s      0.002w    132 calls
JK: K                       :      0.067u      0.000s      0.041w     66 calls
JK: K1                      :      0.050u      0.000s      0.034w    132 calls
JK: K2                      :      0.017u      0.000s      0.006w    132 calls
PK computes JK              :      0.033u      0.000s      0.010w     34 calls
JK: AO2USO                  :      0.000u      0.000s      0.000w    132 calls
HF: Form F                  :      0.000u      0.000s      0.004w    132 calls
HF: DIIS                    :      0.000u      0.000s      0.017w    132 calls
DIISManager::add_entry      :      0.000u      0.000s      0.010w     60 calls
DIISManager::extrapolate    :      0.000u      0.000s      0.004w     56 calls
bMatrix setup               :      0.000u      0.000s      0.001w     56 calls
bMatrix pseudoinverse       :      0.000u      0.000s      0.001w     56 calls
New vector                  :      0.000u      0.000s      0.001w     56 calls
HF: Form C                  :      0.017u      0.000s      0.014w    132 calls
HF: Form D                  :      0.000u      0.000s      0.001w    132 calls
CIWave: CIvect write        :      0.017u      0.000s      0.004w    466 calls
CIWave: CIvect read         :      0.017u      0.033s      0.024w   6298 calls
CIWave: s2                  :      0.100u      0.000s      0.075w    473 calls
CIWave: s1                  :      0.033u      0.000s      0.020w   1075 calls
CIWave: s3                  :      0.250u      0.083s      0.218w    903 calls
CIWave: s3_mt               :      0.133u      0.067s      0.138w  48263 calls
CIWave: opdm                :      0.000u      0.000s      0.004w      4 calls
Total PK formation time     :      0.183u      0.017s      0.109w      2 calls

-----------------------------------------------------------
JK: (A|mn)                  :      0.117u      0.000s      0.060w      4 calls
JK: (A|Q)^-1/2              :      0.083u      0.000s      0.047w      4 calls
JK: (Q|mn)                  :      0.000u      0.000s      0.001w      4 calls
HF: Form H                  :      0.000u      0.050s      0.033w      6 calls
HF: Form S/X                :      0.000u      0.000s      0.002w      6 calls
HF: Guess                   :      0.000u      0.000s      0.001w      6 calls
HF: Form G                  :      2.383u      0.000s      1.429w    132 calls
| JK: D                     :      0.000u      0.000s      0.001w    132 calls
| JK: USO2AO                :      0.000u      0.000s      0.001w    132 calls
| JK: JK                    :      2.367u      0.000s      1.425w    132 calls
| | JK: J                   :      0.000u      0.000s      0.005w     66 calls
| | | JK: J1                :      0.000u      0.000s      0.002w    132 calls
| | | JK: J2                :      0.000u      0.000s      0.002w    132 calls
| | JK: K                   :      0.067u      0.000s      0.041w     66 calls
| | | JK: K1                :      0.050u      0.000s      0.034w    132 calls
| | | JK: K2                :      0.017u      0.000s      0.006w    132 calls
| | PK computes JK          :      0.033u      0.000s      0.010w     34 calls
| JK: AO2USO                :      0.000u      0.000s      0.000w    132 calls
HF: Form F                  :      0.000u      0.000s      0.004w    132 calls
HF: DIIS                    :      0.000u      0.000s      0.017w    132 calls
| DIISManager::add_entry    :      0.000u      0.000s      0.010w     60 calls
| DIISManager::extrapolate  :      0.000u      0.000s      0.004w     56 calls
| | bMatrix setup           :      0.000u      0.000s      0.001w     56 calls
| | bMatrix pseudoinverse   :      0.000u      0.000s      0.001w     56 calls
| | New vector              :      0.000u      0.000s      0.001w     56 calls
HF: Form C                  :      0.017u      0.000s      0.014w    132 calls
HF: Form D                  :      0.000u      0.000s      0.001w    132 calls
CIWave: CIvect write        :      0.017u      0.000s      0.004w    466 calls
CIWave: CIvect read         :      0.017u      0.033s      0.024w   6270 calls
CIWave: s2                  :      0.100u      0.000s      0.075w    473 calls
CIWave: s1                  :      0.033u      0.000s      0.020w   1075 calls
CIWave: s3                  :      0.250u      0.083s      0.218w    903 calls
| CIWave: s3_mt             :      0.133u      0.067s      0.138w  48263 calls
CIWave: opdm                :      0.000u      0.000s      0.004w      4 calls
| CIWave: CIvect read       :      0.000u      0.000s      0.000w     28 calls
Total PK formation time     :      0.183u      0.017s      0.109w      2 calls

***********************************************************

Host: shannon-book.local

Timers On : Thu Feb 21 10:30:12 2019
Timers Off: Thu Feb 21 10:30:21 2019

Wall Time:        8.48 seconds

JK: (A|mn)                  :      0.100u      0.000s      0.058w      4 calls
JK: (A|Q)^-1/2              :      0.083u      0.000s      0.047w      4 calls
JK: (Q|mn)                  :      0.000u      0.000s      0.002w      4 calls
HF: Form H                  :      0.017u      0.033s      0.020w      6 calls
HF: Form S/X                :      0.017u      0.000s      0.002w      6 calls
HF: Guess                   :      0.000u      0.000s      0.001w      6 calls
HF: Form G                  :      2.317u      0.000s      1.421w    132 calls
JK: D                       :      0.000u      0.000s      0.001w    132 calls
JK: USO2AO                  :      0.000u      0.000s      0.001w    132 calls
JK: JK                      :      2.317u      0.000s      1.417w    132 calls
JK: J                       :      0.017u      0.000s      0.005w     66 calls
JK: J1                      :      0.017u      0.000s      0.003w    132 calls
JK: J2                      :      0.000u      0.000s      0.002w    132 calls
JK: K                       :      0.067u      0.000s      0.043w     66 calls
JK: K1                      :      0.067u      0.000s      0.036w    132 calls
JK: K2                      :      0.000u      0.000s      0.007w    132 calls
PK computes JK              :      0.017u      0.000s      0.010w     34 calls
JK: AO2USO                  :      0.000u      0.000s      0.000w    132 calls
HF: Form F                  :      0.000u      0.000s      0.004w    132 calls
HF: DIIS                    :      0.017u      0.017s      0.011w    132 calls
DIISManager::add_entry      :      0.000u      0.000s      0.003w     60 calls
DIISManager::extrapolate    :      0.017u      0.017s      0.004w     56 calls
bMatrix setup               :      0.000u      0.017s      0.001w     56 calls
bMatrix pseudoinverse       :      0.017u      0.000s      0.001w     56 calls
New vector                  :      0.000u      0.000s      0.001w     56 calls
HF: Form C                  :      0.017u      0.000s      0.014w    132 calls
HF: Form D                  :      0.000u      0.000s      0.001w    132 calls
CIWave: CIvect write        :      0.000u      0.033s      0.005w    598 calls
CIWave: CIvect read         :      0.033u      0.017s      0.040w  11163 calls
CIWave: s2                  :      0.117u      0.000s      0.093w    583 calls
CIWave: s1                  :      0.033u      0.000s      0.025w   1325 calls
CIWave: s3                  :      0.417u      0.067s      0.275w   1113 calls
CIWave: s3_mt               :      0.267u      0.050s      0.175w  59993 calls
CIWave: opdm                :      0.000u      0.000s      0.004w      4 calls
Total PK formation time     :      0.183u      0.000s      0.113w      2 calls

-----------------------------------------------------------
JK: (A|mn)                  :      0.100u      0.000s      0.058w      4 calls
JK: (A|Q)^-1/2              :      0.083u      0.000s      0.047w      4 calls
JK: (Q|mn)                  :      0.000u      0.000s      0.002w      4 calls
HF: Form H                  :      0.017u      0.033s      0.020w      6 calls
HF: Form S/X                :      0.017u      0.000s      0.002w      6 calls
HF: Guess                   :      0.000u      0.000s      0.001w      6 calls
HF: Form G                  :      2.317u      0.000s      1.421w    132 calls
| JK: D                     :      0.000u      0.000s      0.001w    132 calls
| JK: USO2AO                :      0.000u      0.000s      0.001w    132 calls
| JK: JK                    :      2.317u      0.000s      1.417w    132 calls
| | JK: J                   :      0.017u      0.000s      0.005w     66 calls
| | | JK: J1                :      0.017u      0.000s      0.003w    132 calls
| | | JK: J2                :      0.000u      0.000s      0.002w    132 calls
| | JK: K                   :      0.067u      0.000s      0.043w     66 calls
| | | JK: K1                :      0.067u      0.000s      0.036w    132 calls
| | | JK: K2                :      0.000u      0.000s      0.007w    132 calls
| | PK computes JK          :      0.017u      0.000s      0.010w     34 calls
| JK: AO2USO                :      0.000u      0.000s      0.000w    132 calls
HF: Form F                  :      0.000u      0.000s      0.004w    132 calls
HF: DIIS                    :      0.017u      0.017s      0.011w    132 calls
| DIISManager::add_entry    :      0.000u      0.000s      0.003w     60 calls
| DIISManager::extrapolate  :      0.017u      0.017s      0.004w     56 calls
| | bMatrix setup           :      0.000u      0.017s      0.001w     56 calls
| | bMatrix pseudoinverse   :      0.017u      0.000s      0.001w     56 calls
| | New vector              :      0.000u      0.000s      0.001w     56 calls
HF: Form C                  :      0.017u      0.000s      0.014w    132 calls
HF: Form D                  :      0.000u      0.000s      0.001w    132 calls
CIWave: CIvect write        :      0.000u      0.033s      0.005w    598 calls
CIWave: CIvect read         :      0.033u      0.017s      0.040w  11135 calls
CIWave: s2                  :      0.117u      0.000s      0.093w    583 calls
CIWave: s1                  :      0.033u      0.000s      0.025w   1325 calls
CIWave: s3                  :      0.417u      0.067s      0.275w   1113 calls
| CIWave: s3_mt             :      0.267u      0.050s      0.175w  59993 calls
CIWave: opdm                :      0.000u      0.000s      0.004w      4 calls
| CIWave: CIvect read       :      0.000u      0.000s      0.000w     28 calls
Total PK formation time     :      0.183u      0.000s      0.113w      2 calls

***********************************************************

Host: shannon-book.local

Timers On : Thu Feb 21 10:30:42 2019
Timers Off: Thu Feb 21 10:32:17 2019

Wall Time:       95.39 seconds

JK: (A|mn)                  :      0.100u      0.000s      0.057w      4 calls
JK: (A|Q)^-1/2              :      0.083u      0.017s      0.047w      4 calls
JK: (Q|mn)                  :      0.000u      0.000s      0.001w      4 calls
HF: Form H                  :      0.000u      0.033s      0.019w      6 calls
HF: Form S/X                :      0.000u      0.000s      0.002w      6 calls
HF: Guess                   :      0.000u      0.000s      0.001w      6 calls
HF: Form G                  :      2.367u      0.000s      1.415w    132 calls
JK: D                       :      0.000u      0.000s      0.001w    132 calls
JK: USO2AO                  :      0.000u      0.000s      0.001w    132 calls
JK: JK                      :      2.367u      0.000s      1.411w    132 calls
JK: J                       :      0.000u      0.000s      0.005w     66 calls
JK: J1                      :      0.000u      0.000s      0.002w    132 calls
JK: J2                      :      0.000u      0.000s      0.002w    132 calls
JK: K                       :      0.100u      0.000s      0.044w     66 calls
JK: K1                      :      0.100u      0.000s      0.037w    132 calls
JK: K2                      :      0.000u      0.000s      0.007w    132 calls
PK computes JK              :      0.000u      0.000s      0.010w     34 calls
JK: AO2USO                  :      0.000u      0.000s      0.000w    132 calls
HF: Form F                  :      0.033u      0.000s      0.004w    132 calls
HF: DIIS                    :      0.017u      0.000s      0.011w    132 calls
DIISManager::add_entry      :      0.000u      0.000s      0.004w     60 calls
DIISManager::extrapolate    :      0.017u      0.000s      0.004w     56 calls
bMatrix setup               :      0.017u      0.000s      0.001w     56 calls
bMatrix pseudoinverse       :      0.000u      0.000s      0.001w     56 calls
New vector                  :      0.000u      0.000s      0.001w     56 calls
HF: Form C                  :      0.000u      0.000s      0.014w    132 calls
HF: Form D                  :      0.000u      0.000s      0.001w    132 calls
CIWave: CIvect write        :      0.000u      0.000s      0.004w    546 calls
CIWave: CIvect read         :      0.000u      0.067s      0.032w   9126 calls
CIWave: s2                  :      0.150u      0.000s      0.085w    539 calls
CIWave: s1                  :      0.017u      0.000s      0.022w   1225 calls
CIWave: s3                  :      0.300u      0.067s      0.247w   1029 calls
CIWave: s3_mt               :      0.200u      0.033s      0.156w  55301 calls
CIWave: opdm                :      0.017u      0.000s      0.004w      4 calls
Total PK formation time     :      0.200u      0.000s      0.108w      2 calls

-----------------------------------------------------------
JK: (A|mn)                  :      0.100u      0.000s      0.057w      4 calls
JK: (A|Q)^-1/2              :      0.083u      0.017s      0.047w      4 calls
JK: (Q|mn)                  :      0.000u      0.000s      0.001w      4 calls
HF: Form H                  :      0.000u      0.033s      0.019w      6 calls
HF: Form S/X                :      0.000u      0.000s      0.002w      6 calls
HF: Guess                   :      0.000u      0.000s      0.001w      6 calls
HF: Form G                  :      2.367u      0.000s      1.415w    132 calls
| JK: D                     :      0.000u      0.000s      0.001w    132 calls
| JK: USO2AO                :      0.000u      0.000s      0.001w    132 calls
| JK: JK                    :      2.367u      0.000s      1.411w    132 calls
| | JK: J                   :      0.000u      0.000s      0.005w     66 calls
| | | JK: J1                :      0.000u      0.000s      0.002w    132 calls
| | | JK: J2                :      0.000u      0.000s      0.002w    132 calls
| | JK: K                   :      0.100u      0.000s      0.044w     66 calls
| | | JK: K1                :      0.100u      0.000s      0.037w    132 calls
| | | JK: K2                :      0.000u      0.000s      0.007w    132 calls
| | PK computes JK          :      0.000u      0.000s      0.010w     34 calls
| JK: AO2USO                :      0.000u      0.000s      0.000w    132 calls
HF: Form F                  :      0.033u      0.000s      0.004w    132 calls
HF: DIIS                    :      0.017u      0.000s      0.011w    132 calls
| DIISManager::add_entry    :      0.000u      0.000s      0.004w     60 calls
| DIISManager::extrapolate  :      0.017u      0.000s      0.004w     56 calls
| | bMatrix setup           :      0.017u      0.000s      0.001w     56 calls
| | bMatrix pseudoinverse   :      0.000u      0.000s      0.001w     56 calls
| | New vector              :      0.000u      0.000s      0.001w     56 calls
HF: Form C                  :      0.000u      0.000s      0.014w    132 calls
HF: Form D                  :      0.000u      0.000s      0.001w    132 calls
CIWave: CIvect write        :      0.000u      0.000s      0.004w    546 calls
CIWave: CIvect read         :      0.000u      0.067s      0.032w   9098 calls
CIWave: s2                  :      0.150u      0.000s      0.085w    539 calls
CIWave: s1                  :      0.017u      0.000s      0.022w   1225 calls
CIWave: s3                  :      0.300u      0.067s      0.247w   1029 calls
| CIWave: s3_mt             :      0.200u      0.033s      0.156w  55301 calls
CIWave: opdm                :      0.017u      0.000s      0.004w      4 calls
| CIWave: CIvect read       :      0.000u      0.000s      0.000w     28 calls
Total PK formation time     :      0.200u      0.000s      0.108w      2 calls

***********************************************************

Host: shannon-book.local

Timers On : Thu Feb 21 11:14:22 2019
Timers Off: Thu Feb 21 11:14:30 2019

Wall Time:        7.82 seconds

JK: (A|mn)                  :      0.117u      0.000s      0.057w      4 calls
JK: (A|Q)^-1/2              :      0.067u      0.000s      0.047w      4 calls
JK: (Q|mn)                  :      0.000u      0.000s      0.001w      4 calls
HF: Form H                  :      0.017u      0.017s      0.018w      6 calls
HF: Form S/X                :      0.000u      0.000s      0.002w      6 calls
HF: Guess                   :      0.000u      0.000s      0.001w      6 calls
HF: Form G                  :      2.283u      0.000s      1.405w    132 calls
JK: D                       :      0.000u      0.000s      0.001w    132 calls
JK: USO2AO                  :      0.000u      0.000s      0.001w    132 calls
JK: JK                      :      2.283u      0.000s      1.402w    132 calls
JK: J                       :      0.000u      0.000s      0.005w     66 calls
JK: J1                      :      0.000u      0.000s      0.002w    132 calls
JK: J2                      :      0.000u      0.000s      0.002w    132 calls
JK: K                       :      0.050u      0.000s      0.041w     66 calls
JK: K1                      :      0.050u      0.000s      0.034w    132 calls
JK: K2                      :      0.000u      0.000s      0.006w    132 calls
PK computes JK              :      0.000u      0.000s      0.010w     34 calls
JK: AO2USO                  :      0.000u      0.000s      0.000w    132 calls
HF: Form F                  :      0.017u      0.000s      0.004w    132 calls
HF: DIIS                    :      0.000u      0.017s      0.011w    132 calls
DIISManager::add_entry      :      0.000u      0.017s      0.003w     60 calls
DIISManager::extrapolate    :      0.000u      0.000s      0.004w     56 calls
bMatrix setup               :      0.000u      0.000s      0.001w     56 calls
bMatrix pseudoinverse       :      0.000u      0.000s      0.001w     56 calls
New vector                  :      0.000u      0.000s      0.001w     56 calls
HF: Form C                  :      0.050u      0.000s      0.014w    132 calls
HF: Form D                  :      0.000u      0.000s      0.001w    132 calls
CIWave: CIvect write        :      0.000u      0.000s      0.004w    560 calls
CIWave: CIvect read         :      0.033u      0.017s      0.037w   9689 calls
CIWave: s2                  :      0.083u      0.000s      0.088w    550 calls
CIWave: s1                  :      0.000u      0.000s      0.023w   1250 calls
CIWave: s3                  :      0.400u      0.067s      0.253w   1050 calls
CIWave: s3_mt               :      0.250u      0.017s      0.164w  56474 calls
CIWave: opdm                :      0.000u      0.000s      0.004w      4 calls
Total PK formation time     :      0.200u      0.000s      0.111w      2 calls

-----------------------------------------------------------
JK: (A|mn)                  :      0.117u      0.000s      0.057w      4 calls
JK: (A|Q)^-1/2              :      0.067u      0.000s      0.047w      4 calls
JK: (Q|mn)                  :      0.000u      0.000s      0.001w      4 calls
HF: Form H                  :      0.017u      0.017s      0.018w      6 calls
HF: Form S/X                :      0.000u      0.000s      0.002w      6 calls
HF: Guess                   :      0.000u      0.000s      0.001w      6 calls
HF: Form G                  :      2.283u      0.000s      1.405w    132 calls
| JK: D                     :      0.000u      0.000s      0.001w    132 calls
| JK: USO2AO                :      0.000u      0.000s      0.001w    132 calls
| JK: JK                    :      2.283u      0.000s      1.402w    132 calls
| | JK: J                   :      0.000u      0.000s      0.005w     66 calls
| | | JK: J1                :      0.000u      0.000s      0.002w    132 calls
| | | JK: J2                :      0.000u      0.000s      0.002w    132 calls
| | JK: K                   :      0.050u      0.000s      0.041w     66 calls
| | | JK: K1                :      0.050u      0.000s      0.034w    132 calls
| | | JK: K2                :      0.000u      0.000s      0.006w    132 calls
| | PK computes JK          :      0.000u      0.000s      0.010w     34 calls
| JK: AO2USO                :      0.000u      0.000s      0.000w    132 calls
HF: Form F                  :      0.017u      0.000s      0.004w    132 calls
HF: DIIS                    :      0.000u      0.017s      0.011w    132 calls
| DIISManager::add_entry    :      0.000u      0.017s      0.003w     60 calls
| DIISManager::extrapolate  :      0.000u      0.000s      0.004w     56 calls
| | bMatrix setup           :      0.000u      0.000s      0.001w     56 calls
| | bMatrix pseudoinverse   :      0.000u      0.000s      0.001w     56 calls
| | New vector              :      0.000u      0.000s      0.001w     56 calls
HF: Form C                  :      0.050u      0.000s      0.014w    132 calls
HF: Form D                  :      0.000u      0.000s      0.001w    132 calls
CIWave: CIvect write        :      0.000u      0.000s      0.004w    560 calls
CIWave: CIvect read         :      0.033u      0.017s      0.037w   9661 calls
CIWave: s2                  :      0.083u      0.000s      0.088w    550 calls
CIWave: s1                  :      0.000u      0.000s      0.023w   1250 calls
CIWave: s3                  :      0.400u      0.067s      0.253w   1050 calls
| CIWave: s3_mt             :      0.250u      0.017s      0.164w  56474 calls
CIWave: opdm                :      0.000u      0.000s      0.004w      4 calls
| CIWave: CIvect read       :      0.000u      0.000s      0.000w     28 calls
Total PK formation time     :      0.200u      0.000s      0.111w      2 calls

***********************************************************

Host: shannon-book.local

Timers On : Thu Feb 21 11:17:53 2019
Timers Off: Thu Feb 21 11:18:01 2019

Wall Time:        7.96 seconds

JK: (A|mn)                  :      0.100u      0.000s      0.059w      4 calls
JK: (A|Q)^-1/2              :      0.083u      0.017s      0.048w      4 calls
JK: (Q|mn)                  :      0.000u      0.000s      0.001w      4 calls
HF: Form H                  :      0.000u      0.017s      0.019w      6 calls
HF: Form S/X                :      0.000u      0.000s      0.002w      6 calls
HF: Guess                   :      0.000u      0.000s      0.001w      6 calls
HF: Form G                  :      2.617u      0.000s      1.570w    132 calls
JK: D                       :      0.000u      0.000s      0.001w    132 calls
JK: USO2AO                  :      0.000u      0.000s      0.001w    132 calls
JK: JK                      :      2.583u      0.000s      1.566w    132 calls
JK: J                       :      0.000u      0.000s      0.005w     66 calls
JK: J1                      :      0.000u      0.000s      0.002w    132 calls
JK: J2                      :      0.000u      0.000s      0.002w    132 calls
JK: K                       :      0.050u      0.000s      0.042w     66 calls
JK: K1                      :      0.050u      0.000s      0.035w    132 calls
JK: K2                      :      0.000u      0.000s      0.006w    132 calls
PK computes JK              :      0.017u      0.000s      0.010w     34 calls
JK: AO2USO                  :      0.000u      0.000s      0.000w    132 calls
HF: Form F                  :      0.000u      0.000s      0.004w    132 calls
HF: DIIS                    :      0.033u      0.000s      0.011w    132 calls
DIISManager::add_entry      :      0.000u      0.000s      0.003w     60 calls
DIISManager::extrapolate    :      0.017u      0.000s      0.004w     56 calls
bMatrix setup               :      0.000u      0.000s      0.001w     56 calls
bMatrix pseudoinverse       :      0.017u      0.000s      0.001w     56 calls
New vector                  :      0.000u      0.000s      0.001w     56 calls
HF: Form C                  :      0.017u      0.000s      0.014w    132 calls
HF: Form D                  :      0.000u      0.000s      0.001w    132 calls
CIWave: CIvect write        :      0.000u      0.000s      0.003w    508 calls
CIWave: CIvect read         :      0.017u      0.017s      0.027w   7792 calls
CIWave: s2                  :      0.150u      0.017s      0.076w    506 calls
CIWave: s1                  :      0.017u      0.000s      0.020w   1150 calls
CIWave: s3                  :      0.317u      0.083s      0.224w    966 calls
CIWave: s3_mt               :      0.183u      0.050s      0.142w  51782 calls
CIWave: opdm                :      0.000u      0.000s      0.004w      4 calls
Total PK formation time     :      0.167u      0.000s      0.107w      2 calls

-----------------------------------------------------------
JK: (A|mn)                  :      0.100u      0.000s      0.059w      4 calls
JK: (A|Q)^-1/2              :      0.083u      0.017s      0.048w      4 calls
JK: (Q|mn)                  :      0.000u      0.000s      0.001w      4 calls
HF: Form H                  :      0.000u      0.017s      0.019w      6 calls
HF: Form S/X                :      0.000u      0.000s      0.002w      6 calls
HF: Guess                   :      0.000u      0.000s      0.001w      6 calls
HF: Form G                  :      2.617u      0.000s      1.570w    132 calls
| JK: D                     :      0.000u      0.000s      0.001w    132 calls
| JK: USO2AO                :      0.000u      0.000s      0.001w    132 calls
| JK: JK                    :      2.583u      0.000s      1.566w    132 calls
| | JK: J                   :      0.000u      0.000s      0.005w     66 calls
| | | JK: J1                :      0.000u      0.000s      0.002w    132 calls
| | | JK: J2                :      0.000u      0.000s      0.002w    132 calls
| | JK: K                   :      0.050u      0.000s      0.042w     66 calls
| | | JK: K1                :      0.050u      0.000s      0.035w    132 calls
| | | JK: K2                :      0.000u      0.000s      0.006w    132 calls
| | PK computes JK          :      0.017u      0.000s      0.010w     34 calls
| JK: AO2USO                :      0.000u      0.000s      0.000w    132 calls
HF: Form F                  :      0.000u      0.000s      0.004w    132 calls
HF: DIIS                    :      0.033u      0.000s      0.011w    132 calls
| DIISManager::add_entry    :      0.000u      0.000s      0.003w     60 calls
| DIISManager::extrapolate  :      0.017u      0.000s      0.004w     56 calls
| | bMatrix setup           :      0.000u      0.000s      0.001w     56 calls
| | bMatrix pseudoinverse   :      0.017u      0.000s      0.001w     56 calls
| | New vector              :      0.000u      0.000s      0.001w     56 calls
HF: Form C                  :      0.017u      0.000s      0.014w    132 calls
HF: Form D                  :      0.000u      0.000s      0.001w    132 calls
CIWave: CIvect write        :      0.000u      0.000s      0.003w    508 calls
CIWave: CIvect read         :      0.017u      0.017s      0.027w   7764 calls
CIWave: s2                  :      0.150u      0.017s      0.076w    506 calls
CIWave: s1                  :      0.017u      0.000s      0.020w   1150 calls
CIWave: s3                  :      0.317u      0.083s      0.224w    966 calls
| CIWave: s3_mt             :      0.183u      0.050s      0.142w  51782 calls
CIWave: opdm                :      0.000u      0.000s      0.004w      4 calls
| CIWave: CIvect read       :      0.000u      0.000s      0.000w     28 calls
Total PK formation time     :      0.167u      0.000s      0.107w      2 calls

***********************************************************

Host: shannon-book.local

Timers On : Thu Feb 21 11:20:22 2019
Timers Off: Thu Feb 21 11:20:29 2019

Wall Time:        7.87 seconds

JK: (A|mn)                  :      0.100u      0.017s      0.057w      4 calls
JK: (A|Q)^-1/2              :      0.083u      0.000s      0.047w      4 calls
JK: (Q|mn)                  :      0.000u      0.000s      0.002w      4 calls
HF: Form H                  :      0.000u      0.000s      0.019w      6 calls
HF: Form S/X                :      0.000u      0.000s      0.002w      6 calls
HF: Guess                   :      0.000u      0.000s      0.001w      6 calls
HF: Form G                  :      2.333u      0.000s      1.410w    132 calls
JK: D                       :      0.000u      0.000s      0.001w    132 calls
JK: USO2AO                  :      0.000u      0.000s      0.001w    132 calls
JK: JK                      :      2.333u      0.000s      1.406w    132 calls
JK: J                       :      0.017u      0.000s      0.005w     66 calls
JK: J1                      :      0.017u      0.000s      0.002w    132 calls
JK: J2                      :      0.000u      0.000s      0.002w    132 calls
JK: K                       :      0.067u      0.000s      0.041w     66 calls
JK: K1                      :      0.067u      0.000s      0.034w    132 calls
JK: K2                      :      0.000u      0.000s      0.006w    132 calls
PK computes JK              :      0.017u      0.000s      0.010w     34 calls
JK: AO2USO                  :      0.000u      0.000s      0.000w    132 calls
HF: Form F                  :      0.000u      0.000s      0.004w    132 calls
HF: DIIS                    :      0.017u      0.000s      0.011w    132 calls
DIISManager::add_entry      :      0.000u      0.000s      0.003w     60 calls
DIISManager::extrapolate    :      0.000u      0.000s      0.004w     56 calls
bMatrix setup               :      0.000u      0.000s      0.001w     56 calls
bMatrix pseudoinverse       :      0.000u      0.000s      0.001w     56 calls
New vector                  :      0.000u      0.000s      0.001w     56 calls
HF: Form C                  :      0.000u      0.000s      0.014w    132 calls
HF: Form D                  :      0.000u      0.000s      0.001w    132 calls
CIWave: CIvect write        :      0.000u      0.017s      0.004w    584 calls
CIWave: CIvect read         :      0.000u      0.033s      0.038w  10526 calls
CIWave: s2                  :      0.167u      0.000s      0.090w    572 calls
CIWave: s1                  :      0.067u      0.000s      0.023w   1300 calls
CIWave: s3                  :      0.333u      0.083s      0.263w   1092 calls
CIWave: s3_mt               :      0.217u      0.033s      0.168w  58820 calls
CIWave: opdm                :      0.000u      0.000s      0.004w      4 calls
Total PK formation time     :      0.200u      0.017s      0.110w      2 calls

-----------------------------------------------------------
JK: (A|mn)                  :      0.100u      0.017s      0.057w      4 calls
JK: (A|Q)^-1/2              :      0.083u      0.000s      0.047w      4 calls
JK: (Q|mn)                  :      0.000u      0.000s      0.002w      4 calls
HF: Form H                  :      0.000u      0.000s      0.019w      6 calls
HF: Form S/X                :      0.000u      0.000s      0.002w      6 calls
HF: Guess                   :      0.000u      0.000s      0.001w      6 calls
HF: Form G                  :      2.333u      0.000s      1.410w    132 calls
| JK: D                     :      0.000u      0.000s      0.001w    132 calls
| JK: USO2AO                :      0.000u      0.000s      0.001w    132 calls
| JK: JK                    :      2.333u      0.000s      1.406w    132 calls
| | JK: J                   :      0.017u      0.000s      0.005w     66 calls
| | | JK: J1                :      0.017u      0.000s      0.002w    132 calls
| | | JK: J2                :      0.000u      0.000s      0.002w    132 calls
| | JK: K                   :      0.067u      0.000s      0.041w     66 calls
| | | JK: K1                :      0.067u      0.000s      0.034w    132 calls
| | | JK: K2                :      0.000u      0.000s      0.006w    132 calls
| | PK computes JK          :      0.017u      0.000s      0.010w     34 calls
| JK: AO2USO                :      0.000u      0.000s      0.000w    132 calls
HF: Form F                  :      0.000u      0.000s      0.004w    132 calls
HF: DIIS                    :      0.017u      0.000s      0.011w    132 calls
| DIISManager::add_entry    :      0.000u      0.000s      0.003w     60 calls
| DIISManager::extrapolate  :      0.000u      0.000s      0.004w     56 calls
| | bMatrix setup           :      0.000u      0.000s      0.001w     56 calls
| | bMatrix pseudoinverse   :      0.000u      0.000s      0.001w     56 calls
| | New vector              :      0.000u      0.000s      0.001w     56 calls
HF: Form C                  :      0.000u      0.000s      0.014w    132 calls
HF: Form D                  :      0.000u      0.000s      0.001w    132 calls
CIWave: CIvect write        :      0.000u      0.017s      0.004w    584 calls
CIWave: CIvect read         :      0.000u      0.033s      0.038w  10498 calls
CIWave: s2                  :      0.167u      0.000s      0.090w    572 calls
CIWave: s1                  :      0.067u      0.000s      0.023w   1300 calls
CIWave: s3                  :      0.333u      0.083s      0.263w   1092 calls
| CIWave: s3_mt             :      0.217u      0.033s      0.168w  58820 calls
CIWave: opdm                :      0.000u      0.000s      0.004w      4 calls
| CIWave: CIvect read       :      0.000u      0.000s      0.000w     28 calls
Total PK formation time     :      0.200u      0.017s      0.110w      2 calls

***********************************************************

Host: nr092

Timers On : Sat Feb 23 15:53:39 2019
Timers Off: Sat Feb 23 15:53:55 2019

Wall Time:       15.19 seconds

JK: (A|mn)                  :      0.367u      0.000s      0.191w      8 calls
JK: (A|Q)^-1/2              :      0.250u      0.017s      0.164w      8 calls
JK: (Q|mn)                  :      0.017u      0.000s      0.005w      8 calls
HF: Form H                  :      0.000u      0.000s      0.181w     12 calls
HF: Form S/X                :      0.000u      0.000s      0.003w     12 calls
HF: Guess                   :      0.000u      0.000s      0.002w     12 calls
HF: Form G                  :      7.317u      0.033s      4.361w    264 calls
JK: D                       :      0.000u      0.000s      0.001w    264 calls
JK: USO2AO                  :      0.000u      0.000s      0.001w    264 calls
JK: JK                      :      7.317u      0.033s      4.355w    264 calls
JK: J                       :      0.000u      0.000s      0.009w    132 calls
JK: J1                      :      0.000u      0.000s      0.004w    264 calls
JK: J2                      :      0.000u      0.000s      0.004w    264 calls
JK: K                       :      0.183u      0.017s      0.101w    132 calls
JK: K1                      :      0.183u      0.017s      0.089w    264 calls
JK: K2                      :      0.000u      0.000s      0.012w    264 calls
PK computes JK              :      0.083u      0.000s      0.038w     68 calls
JK: AO2USO                  :      0.000u      0.000s      0.000w    264 calls
HF: Form F                  :      0.000u      0.000s      0.007w    264 calls
HF: DIIS                    :      0.017u      0.017s      0.035w    264 calls
DIISManager::add_entry      :      0.000u      0.017s      0.022w    120 calls
DIISManager::extrapolate    :      0.017u      0.000s      0.007w    112 calls
bMatrix setup               :      0.000u      0.000s      0.002w    112 calls
bMatrix pseudoinverse       :      0.017u      0.000s      0.003w    112 calls
New vector                  :      0.000u      0.000s      0.002w    112 calls
HF: Form C                  :      0.000u      0.000s      0.025w    264 calls
HF: Form D                  :      0.000u      0.000s      0.002w    264 calls
CIWave: CIvect write        :      0.000u      0.017s      0.004w    960 calls
CIWave: CIvect read         :      0.017u      0.017s      0.036w  13566 calls
CIWave: s2                  :      0.300u      0.000s      0.166w    968 calls
CIWave: s1                  :      0.017u      0.000s      0.044w   2200 calls
CIWave: s3                  :      0.683u      0.117s      0.426w   1848 calls
CIWave: s3_mt               :      0.483u      0.050s      0.285w  98872 calls
CIWave: opdm                :      0.017u      0.000s      0.009w      8 calls
Total PK formation time     :      0.600u      0.000s      0.361w      4 calls

-----------------------------------------------------------
JK: (A|mn)                  :      0.367u      0.000s      0.191w      8 calls
JK: (A|Q)^-1/2              :      0.250u      0.017s      0.164w      8 calls
JK: (Q|mn)                  :      0.017u      0.000s      0.005w      8 calls
HF: Form H                  :      0.000u      0.000s      0.181w     12 calls
HF: Form S/X                :      0.000u      0.000s      0.003w     12 calls
HF: Guess                   :      0.000u      0.000s      0.002w     12 calls
HF: Form G                  :      7.317u      0.033s      4.361w    264 calls
| JK: D                     :      0.000u      0.000s      0.001w    264 calls
| JK: USO2AO                :      0.000u      0.000s      0.001w    264 calls
| JK: JK                    :      7.317u      0.033s      4.355w    264 calls
| | JK: J                   :      0.000u      0.000s      0.009w    132 calls
| | | JK: J1                :      0.000u      0.000s      0.004w    264 calls
| | | JK: J2                :      0.000u      0.000s      0.004w    264 calls
| | JK: K                   :      0.183u      0.017s      0.101w    132 calls
| | | JK: K1                :      0.183u      0.017s      0.089w    264 calls
| | | JK: K2                :      0.000u      0.000s      0.012w    264 calls
| | PK computes JK          :      0.083u      0.000s      0.038w     68 calls
| JK: AO2USO                :      0.000u      0.000s      0.000w    264 calls
HF: Form F                  :      0.000u      0.000s      0.007w    264 calls
HF: DIIS                    :      0.017u      0.017s      0.035w    264 calls
| DIISManager::add_entry    :      0.000u      0.017s      0.022w    120 calls
| DIISManager::extrapolate  :      0.017u      0.000s      0.007w    112 calls
| | bMatrix setup           :      0.000u      0.000s      0.002w    112 calls
| | bMatrix pseudoinverse   :      0.017u      0.000s      0.003w    112 calls
| | New vector              :      0.000u      0.000s      0.002w    112 calls
HF: Form C                  :      0.000u      0.000s      0.025w    264 calls
HF: Form D                  :      0.000u      0.000s      0.002w    264 calls
CIWave: CIvect write        :      0.000u      0.017s      0.004w    960 calls
CIWave: CIvect read         :      0.017u      0.017s      0.036w  13510 calls
CIWave: s2                  :      0.300u      0.000s      0.166w    968 calls
CIWave: s1                  :      0.017u      0.000s      0.044w   2200 calls
CIWave: s3                  :      0.683u      0.117s      0.426w   1848 calls
| CIWave: s3_mt             :      0.483u      0.050s      0.285w  98872 calls
CIWave: opdm                :      0.017u      0.000s      0.009w      8 calls
| CIWave: CIvect read       :      0.000u      0.000s      0.000w     56 calls
Total PK formation time     :      0.600u      0.000s      0.361w      4 calls

***********************************************************

Host: nr092

Timers On : Sat Feb 23 15:57:12 2019
Timers Off: Sat Feb 23 15:57:19 2019

Wall Time:        7.81 seconds

JK: (A|mn)                  :      0.133u      0.017s      0.096w      4 calls
JK: (A|Q)^-1/2              :      0.133u      0.017s      0.088w      4 calls
JK: (Q|mn)                  :      0.000u      0.000s      0.003w      4 calls
HF: Form H                  :      0.017u      0.000s      0.093w      6 calls
HF: Form S/X                :      0.017u      0.000s      0.001w      6 calls
HF: Guess                   :      0.000u      0.000s      0.001w      6 calls
HF: Form G                  :      3.583u      0.000s      2.164w    132 calls
JK: D                       :      0.000u      0.000s      0.001w    132 calls
JK: USO2AO                  :      0.000u      0.000s      0.000w    132 calls
JK: JK                      :      3.583u      0.000s      2.161w    132 calls
JK: J                       :      0.000u      0.000s      0.005w     66 calls
JK: J1                      :      0.000u      0.000s      0.002w    132 calls
JK: J2                      :      0.000u      0.000s      0.002w    132 calls
JK: K                       :      0.100u      0.000s      0.050w     66 calls
JK: K1                      :      0.083u      0.000s      0.044w    132 calls
JK: K2                      :      0.017u      0.000s      0.006w    132 calls
PK computes JK              :      0.017u      0.000s      0.019w     34 calls
JK: AO2USO                  :      0.000u      0.000s      0.000w    132 calls
HF: Form F                  :      0.000u      0.000s      0.003w    132 calls
HF: DIIS                    :      0.017u      0.000s      0.017w    132 calls
DIISManager::add_entry      :      0.017u      0.000s      0.011w     60 calls
DIISManager::extrapolate    :      0.000u      0.000s      0.003w     56 calls
bMatrix setup               :      0.000u      0.000s      0.001w     56 calls
bMatrix pseudoinverse       :      0.000u      0.000s      0.001w     56 calls
New vector                  :      0.000u      0.000s      0.001w     56 calls
HF: Form C                  :      0.033u      0.000s      0.012w    132 calls
HF: Form D                  :      0.000u      0.000s      0.001w    132 calls
CIWave: CIvect write        :      0.017u      0.017s      0.002w    480 calls
CIWave: CIvect read         :      0.017u      0.000s      0.018w   6783 calls
CIWave: s2                  :      0.067u      0.000s      0.084w    484 calls
CIWave: s1                  :      0.033u      0.000s      0.022w   1100 calls
CIWave: s3                  :      0.367u      0.083s      0.211w    924 calls
CIWave: s3_mt               :      0.300u      0.033s      0.143w  49436 calls
CIWave: opdm                :      0.000u      0.000s      0.005w      4 calls
Total PK formation time     :      0.283u      0.000s      0.176w      2 calls

-----------------------------------------------------------
JK: (A|mn)                  :      0.133u      0.017s      0.096w      4 calls
JK: (A|Q)^-1/2              :      0.133u      0.017s      0.088w      4 calls
JK: (Q|mn)                  :      0.000u      0.000s      0.003w      4 calls
HF: Form H                  :      0.017u      0.000s      0.093w      6 calls
HF: Form S/X                :      0.017u      0.000s      0.001w      6 calls
HF: Guess                   :      0.000u      0.000s      0.001w      6 calls
HF: Form G                  :      3.583u      0.000s      2.164w    132 calls
| JK: D                     :      0.000u      0.000s      0.001w    132 calls
| JK: USO2AO                :      0.000u      0.000s      0.000w    132 calls
| JK: JK                    :      3.583u      0.000s      2.161w    132 calls
| | JK: J                   :      0.000u      0.000s      0.005w     66 calls
| | | JK: J1                :      0.000u      0.000s      0.002w    132 calls
| | | JK: J2                :      0.000u      0.000s      0.002w    132 calls
| | JK: K                   :      0.100u      0.000s      0.050w     66 calls
| | | JK: K1                :      0.083u      0.000s      0.044w    132 calls
| | | JK: K2                :      0.017u      0.000s      0.006w    132 calls
| | PK computes JK          :      0.017u      0.000s      0.019w     34 calls
| JK: AO2USO                :      0.000u      0.000s      0.000w    132 calls
HF: Form F                  :      0.000u      0.000s      0.003w    132 calls
HF: DIIS                    :      0.017u      0.000s      0.017w    132 calls
| DIISManager::add_entry    :      0.017u      0.000s      0.011w     60 calls
| DIISManager::extrapolate  :      0.000u      0.000s      0.003w     56 calls
| | bMatrix setup           :      0.000u      0.000s      0.001w     56 calls
| | bMatrix pseudoinverse   :      0.000u      0.000s      0.001w     56 calls
| | New vector              :      0.000u      0.000s      0.001w     56 calls
HF: Form C                  :      0.033u      0.000s      0.012w    132 calls
HF: Form D                  :      0.000u      0.000s      0.001w    132 calls
CIWave: CIvect write        :      0.017u      0.017s      0.002w    480 calls
CIWave: CIvect read         :      0.017u      0.000s      0.017w   6755 calls
CIWave: s2                  :      0.067u      0.000s      0.084w    484 calls
CIWave: s1                  :      0.033u      0.000s      0.022w   1100 calls
CIWave: s3                  :      0.367u      0.083s      0.211w    924 calls
| CIWave: s3_mt             :      0.300u      0.033s      0.143w  49436 calls
CIWave: opdm                :      0.000u      0.000s      0.005w      4 calls
| CIWave: CIvect read       :      0.000u      0.000s      0.000w     28 calls
Total PK formation time     :      0.283u      0.000s      0.176w      2 calls

***********************************************************

Host: nr092

Timers On : Sat Feb 23 15:58:28 2019
Timers Off: Sat Feb 23 15:58:36 2019

Wall Time:        7.61 seconds

JK: (A|mn)                  :      0.150u      0.000s      0.096w      4 calls
JK: (A|Q)^-1/2              :      0.150u      0.000s      0.087w      4 calls
JK: (Q|mn)                  :      0.000u      0.000s      0.003w      4 calls
HF: Form H                  :      0.017u      0.017s      0.087w      6 calls
HF: Form S/X                :      0.000u      0.017s      0.001w      6 calls
HF: Guess                   :      0.000u      0.000s      0.001w      6 calls
HF: Form G                  :      3.600u      0.000s      2.159w    132 calls
JK: D                       :      0.000u      0.000s      0.001w    132 calls
JK: USO2AO                  :      0.000u      0.000s      0.000w    132 calls
JK: JK                      :      3.600u      0.000s      2.156w    132 calls
JK: J                       :      0.000u      0.000s      0.005w     66 calls
JK: J1                      :      0.000u      0.000s      0.002w    132 calls
JK: J2                      :      0.000u      0.000s      0.002w    132 calls
JK: K                       :      0.083u      0.000s      0.051w     66 calls
JK: K1                      :      0.067u      0.000s      0.045w    132 calls
JK: K2                      :      0.017u      0.000s      0.006w    132 calls
PK computes JK              :      0.017u      0.000s      0.019w     34 calls
JK: AO2USO                  :      0.000u      0.000s      0.000w    132 calls
HF: Form F                  :      0.000u      0.000s      0.003w    132 calls
HF: DIIS                    :      0.000u      0.000s      0.017w    132 calls
DIISManager::add_entry      :      0.000u      0.000s      0.011w     60 calls
DIISManager::extrapolate    :      0.000u      0.000s      0.003w     56 calls
bMatrix setup               :      0.000u      0.000s      0.001w     56 calls
bMatrix pseudoinverse       :      0.000u      0.000s      0.001w     56 calls
New vector                  :      0.000u      0.000s      0.001w     56 calls
HF: Form C                  :      0.050u      0.000s      0.012w    132 calls
HF: Form D                  :      0.000u      0.000s      0.001w    132 calls
CIWave: CIvect write        :      0.000u      0.000s      0.002w    480 calls
CIWave: CIvect read         :      0.033u      0.000s      0.017w   6783 calls
CIWave: s2                  :      0.117u      0.000s      0.084w    484 calls
CIWave: s1                  :      0.017u      0.000s      0.022w   1100 calls
CIWave: s3                  :      0.333u      0.067s      0.212w    924 calls
CIWave: s3_mt               :      0.217u      0.033s      0.144w  49436 calls
CIWave: opdm                :      0.000u      0.000s      0.005w      4 calls
Total PK formation time     :      0.283u      0.000s      0.176w      2 calls

-----------------------------------------------------------
JK: (A|mn)                  :      0.150u      0.000s      0.096w      4 calls
JK: (A|Q)^-1/2              :      0.150u      0.000s      0.087w      4 calls
JK: (Q|mn)                  :      0.000u      0.000s      0.003w      4 calls
HF: Form H                  :      0.017u      0.017s      0.087w      6 calls
HF: Form S/X                :      0.000u      0.017s      0.001w      6 calls
HF: Guess                   :      0.000u      0.000s      0.001w      6 calls
HF: Form G                  :      3.600u      0.000s      2.159w    132 calls
| JK: D                     :      0.000u      0.000s      0.001w    132 calls
| JK: USO2AO                :      0.000u      0.000s      0.000w    132 calls
| JK: JK                    :      3.600u      0.000s      2.156w    132 calls
| | JK: J                   :      0.000u      0.000s      0.005w     66 calls
| | | JK: J1                :      0.000u      0.000s      0.002w    132 calls
| | | JK: J2                :      0.000u      0.000s      0.002w    132 calls
| | JK: K                   :      0.083u      0.000s      0.051w     66 calls
| | | JK: K1                :      0.067u      0.000s      0.045w    132 calls
| | | JK: K2                :      0.017u      0.000s      0.006w    132 calls
| | PK computes JK          :      0.017u      0.000s      0.019w     34 calls
| JK: AO2USO                :      0.000u      0.000s      0.000w    132 calls
HF: Form F                  :      0.000u      0.000s      0.003w    132 calls
HF: DIIS                    :      0.000u      0.000s      0.017w    132 calls
| DIISManager::add_entry    :      0.000u      0.000s      0.011w     60 calls
| DIISManager::extrapolate  :      0.000u      0.000s      0.003w     56 calls
| | bMatrix setup           :      0.000u      0.000s      0.001w     56 calls
| | bMatrix pseudoinverse   :      0.000u      0.000s      0.001w     56 calls
| | New vector              :      0.000u      0.000s      0.001w     56 calls
HF: Form C                  :      0.050u      0.000s      0.012w    132 calls
HF: Form D                  :      0.000u      0.000s      0.001w    132 calls
CIWave: CIvect write        :      0.000u      0.000s      0.002w    480 calls
CIWave: CIvect read         :      0.033u      0.000s      0.017w   6755 calls
CIWave: s2                  :      0.117u      0.000s      0.084w    484 calls
CIWave: s1                  :      0.017u      0.000s      0.022w   1100 calls
CIWave: s3                  :      0.333u      0.067s      0.212w    924 calls
| CIWave: s3_mt             :      0.217u      0.033s      0.144w  49436 calls
CIWave: opdm                :      0.000u      0.000s      0.005w      4 calls
| CIWave: CIvect read       :      0.000u      0.000s      0.000w     28 calls
Total PK formation time     :      0.283u      0.000s      0.176w      2 calls

***********************************************************

Host: nr092

Timers On : Sat Feb 23 15:59:36 2019
Timers Off: Sat Feb 23 15:59:44 2019

Wall Time:        7.66 seconds

JK: (A|mn)                  :      0.133u      0.000s      0.096w      4 calls
JK: (A|Q)^-1/2              :      0.150u      0.017s      0.086w      4 calls
JK: (Q|mn)                  :      0.000u      0.000s      0.003w      4 calls
HF: Form H                  :      0.000u      0.000s      0.088w      6 calls
HF: Form S/X                :      0.000u      0.000s      0.001w      6 calls
HF: Guess                   :      0.000u      0.000s      0.001w      6 calls
HF: Form G                  :      3.650u      0.000s      2.160w    132 calls
JK: D                       :      0.000u      0.000s      0.001w    132 calls
JK: USO2AO                  :      0.000u      0.000s      0.000w    132 calls
JK: JK                      :      3.650u      0.000s      2.156w    132 calls
JK: J                       :      0.000u      0.000s      0.005w     66 calls
JK: J1                      :      0.000u      0.000s      0.002w    132 calls
JK: J2                      :      0.000u      0.000s      0.002w    132 calls
JK: K                       :      0.133u      0.000s      0.051w     66 calls
JK: K1                      :      0.133u      0.000s      0.045w    132 calls
JK: K2                      :      0.000u      0.000s      0.006w    132 calls
PK computes JK              :      0.033u      0.000s      0.019w     34 calls
JK: AO2USO                  :      0.000u      0.000s      0.000w    132 calls
HF: Form F                  :      0.000u      0.000s      0.003w    132 calls
HF: DIIS                    :      0.000u      0.000s      0.020w    132 calls
DIISManager::add_entry      :      0.000u      0.000s      0.014w     60 calls
DIISManager::extrapolate    :      0.000u      0.000s      0.003w     56 calls
bMatrix setup               :      0.000u      0.000s      0.001w     56 calls
bMatrix pseudoinverse       :      0.000u      0.000s      0.001w     56 calls
New vector                  :      0.000u      0.000s      0.001w     56 calls
HF: Form C                  :      0.033u      0.000s      0.013w    132 calls
HF: Form D                  :      0.000u      0.000s      0.001w    132 calls
CIWave: CIvect write        :      0.000u      0.000s      0.002w    480 calls
CIWave: CIvect read         :      0.033u      0.033s      0.018w   6783 calls
CIWave: s2                  :      0.117u      0.017s      0.084w    484 calls
CIWave: s1                  :      0.050u      0.000s      0.022w   1100 calls
CIWave: s3                  :      0.283u      0.033s      0.209w    924 calls
CIWave: s3_mt               :      0.200u      0.000s      0.141w  49436 calls
CIWave: opdm                :      0.000u      0.000s      0.005w      4 calls
Total PK formation time     :      0.300u      0.000s      0.176w      2 calls

-----------------------------------------------------------
JK: (A|mn)                  :      0.133u      0.000s      0.096w      4 calls
JK: (A|Q)^-1/2              :      0.150u      0.017s      0.086w      4 calls
JK: (Q|mn)                  :      0.000u      0.000s      0.003w      4 calls
HF: Form H                  :      0.000u      0.000s      0.088w      6 calls
HF: Form S/X                :      0.000u      0.000s      0.001w      6 calls
HF: Guess                   :      0.000u      0.000s      0.001w      6 calls
HF: Form G                  :      3.650u      0.000s      2.160w    132 calls
| JK: D                     :      0.000u      0.000s      0.001w    132 calls
| JK: USO2AO                :      0.000u      0.000s      0.000w    132 calls
| JK: JK                    :      3.650u      0.000s      2.156w    132 calls
| | JK: J                   :      0.000u      0.000s      0.005w     66 calls
| | | JK: J1                :      0.000u      0.000s      0.002w    132 calls
| | | JK: J2                :      0.000u      0.000s      0.002w    132 calls
| | JK: K                   :      0.133u      0.000s      0.051w     66 calls
| | | JK: K1                :      0.133u      0.000s      0.045w    132 calls
| | | JK: K2                :      0.000u      0.000s      0.006w    132 calls
| | PK computes JK          :      0.033u      0.000s      0.019w     34 calls
| JK: AO2USO                :      0.000u      0.000s      0.000w    132 calls
HF: Form F                  :      0.000u      0.000s      0.003w    132 calls
HF: DIIS                    :      0.000u      0.000s      0.020w    132 calls
| DIISManager::add_entry    :      0.000u      0.000s      0.014w     60 calls
| DIISManager::extrapolate  :      0.000u      0.000s      0.003w     56 calls
| | bMatrix setup           :      0.000u      0.000s      0.001w     56 calls
| | bMatrix pseudoinverse   :      0.000u      0.000s      0.001w     56 calls
| | New vector              :      0.000u      0.000s      0.001w     56 calls
HF: Form C                  :      0.033u      0.000s      0.013w    132 calls
HF: Form D                  :      0.000u      0.000s      0.001w    132 calls
CIWave: CIvect write        :      0.000u      0.000s      0.002w    480 calls
CIWave: CIvect read         :      0.033u      0.033s      0.017w   6755 calls
CIWave: s2                  :      0.117u      0.017s      0.084w    484 calls
CIWave: s1                  :      0.050u      0.000s      0.022w   1100 calls
CIWave: s3                  :      0.283u      0.033s      0.209w    924 calls
| CIWave: s3_mt             :      0.200u      0.000s      0.141w  49436 calls
CIWave: opdm                :      0.000u      0.000s      0.005w      4 calls
| CIWave: CIvect read       :      0.000u      0.000s      0.000w     28 calls
Total PK formation time     :      0.300u      0.000s      0.176w      2 calls

***********************************************************

Host: nr092

Timers On : Sat Feb 23 16:00:42 2019
Timers Off: Sat Feb 23 16:00:50 2019

Wall Time:        7.90 seconds

JK: (A|mn)                  :      0.167u      0.000s      0.095w      4 calls
JK: (A|Q)^-1/2              :      0.100u      0.017s      0.084w      4 calls
JK: (Q|mn)                  :      0.033u      0.000s      0.003w      4 calls
HF: Form H                  :      0.000u      0.017s      0.110w      6 calls
HF: Form S/X                :      0.017u      0.000s      0.001w      6 calls
HF: Guess                   :      0.000u      0.000s      0.001w      6 calls
HF: Form G                  :      3.650u      0.000s      2.158w    132 calls
JK: D                       :      0.000u      0.000s      0.001w    132 calls
JK: USO2AO                  :      0.000u      0.000s      0.000w    132 calls
JK: JK                      :      3.650u      0.000s      2.155w    132 calls
JK: J                       :      0.017u      0.000s      0.005w     66 calls
JK: J1                      :      0.017u      0.000s      0.002w    132 calls
JK: J2                      :      0.000u      0.000s      0.002w    132 calls
JK: K                       :      0.100u      0.000s      0.051w     66 calls
JK: K1                      :      0.100u      0.000s      0.045w    132 calls
JK: K2                      :      0.000u      0.000s      0.006w    132 calls
PK computes JK              :      0.033u      0.000s      0.019w     34 calls
JK: AO2USO                  :      0.000u      0.000s      0.000w    132 calls
HF: Form F                  :      0.000u      0.000s      0.003w    132 calls
HF: DIIS                    :      0.000u      0.000s      0.023w    132 calls
DIISManager::add_entry      :      0.000u      0.000s      0.017w     60 calls
DIISManager::extrapolate    :      0.000u      0.000s      0.003w     56 calls
bMatrix setup               :      0.000u      0.000s      0.001w     56 calls
bMatrix pseudoinverse       :      0.000u      0.000s      0.001w     56 calls
New vector                  :      0.000u      0.000s      0.001w     56 calls
HF: Form C                  :      0.000u      0.000s      0.013w    132 calls
HF: Form D                  :      0.000u      0.000s      0.001w    132 calls
CIWave: CIvect write        :      0.000u      0.017s      0.002w    480 calls
CIWave: CIvect read         :      0.000u      0.000s      0.018w   6783 calls
CIWave: s2                  :      0.133u      0.000s      0.084w    484 calls
CIWave: s1                  :      0.017u      0.000s      0.022w   1100 calls
CIWave: s3                  :      0.367u      0.067s      0.210w    924 calls
CIWave: s3_mt               :      0.200u      0.033s      0.142w  49436 calls
CIWave: opdm                :      0.017u      0.000s      0.005w      4 calls
Total PK formation time     :      0.283u      0.000s      0.177w      2 calls

-----------------------------------------------------------
JK: (A|mn)                  :      0.167u      0.000s      0.095w      4 calls
JK: (A|Q)^-1/2              :      0.100u      0.017s      0.084w      4 calls
JK: (Q|mn)                  :      0.033u      0.000s      0.003w      4 calls
HF: Form H                  :      0.000u      0.017s      0.110w      6 calls
HF: Form S/X                :      0.017u      0.000s      0.001w      6 calls
HF: Guess                   :      0.000u      0.000s      0.001w      6 calls
HF: Form G                  :      3.650u      0.000s      2.158w    132 calls
| JK: D                     :      0.000u      0.000s      0.001w    132 calls
| JK: USO2AO                :      0.000u      0.000s      0.000w    132 calls
| JK: JK                    :      3.650u      0.000s      2.155w    132 calls
| | JK: J                   :      0.017u      0.000s      0.005w     66 calls
| | | JK: J1                :      0.017u      0.000s      0.002w    132 calls
| | | JK: J2                :      0.000u      0.000s      0.002w    132 calls
| | JK: K                   :      0.100u      0.000s      0.051w     66 calls
| | | JK: K1                :      0.100u      0.000s      0.045w    132 calls
| | | JK: K2                :      0.000u      0.000s      0.006w    132 calls
| | PK computes JK          :      0.033u      0.000s      0.019w     34 calls
| JK: AO2USO                :      0.000u      0.000s      0.000w    132 calls
HF: Form F                  :      0.000u      0.000s      0.003w    132 calls
HF: DIIS                    :      0.000u      0.000s      0.023w    132 calls
| DIISManager::add_entry    :      0.000u      0.000s      0.017w     60 calls
| DIISManager::extrapolate  :      0.000u      0.000s      0.003w     56 calls
| | bMatrix setup           :      0.000u      0.000s      0.001w     56 calls
| | bMatrix pseudoinverse   :      0.000u      0.000s      0.001w     56 calls
| | New vector              :      0.000u      0.000s      0.001w     56 calls
HF: Form C                  :      0.000u      0.000s      0.013w    132 calls
HF: Form D                  :      0.000u      0.000s      0.001w    132 calls
CIWave: CIvect write        :      0.000u      0.017s      0.002w    480 calls
CIWave: CIvect read         :      0.000u      0.000s      0.017w   6755 calls
CIWave: s2                  :      0.133u      0.000s      0.084w    484 calls
CIWave: s1                  :      0.017u      0.000s      0.022w   1100 calls
CIWave: s3                  :      0.367u      0.067s      0.210w    924 calls
| CIWave: s3_mt             :      0.200u      0.033s      0.142w  49436 calls
CIWave: opdm                :      0.017u      0.000s      0.005w      4 calls
| CIWave: CIvect read       :      0.000u      0.000s      0.000w     28 calls
Total PK formation time     :      0.283u      0.000s      0.177w      2 calls

***********************************************************

Host: nr092

Timers On : Sat Feb 23 16:03:31 2019
Timers Off: Sat Feb 23 16:03:39 2019

Wall Time:        7.95 seconds

JK: (A|mn)                  :      0.167u      0.000s      0.096w      4 calls
JK: (A|Q)^-1/2              :      0.133u      0.017s      0.086w      4 calls
JK: (Q|mn)                  :      0.000u      0.000s      0.003w      4 calls
HF: Form H                  :      0.000u      0.017s      0.103w      6 calls
HF: Form S/X                :      0.000u      0.000s      0.001w      6 calls
HF: Guess                   :      0.000u      0.000s      0.001w      6 calls
HF: Form G                  :      3.567u      0.000s      2.160w    132 calls
JK: D                       :      0.000u      0.000s      0.001w    132 calls
JK: USO2AO                  :      0.000u      0.000s      0.000w    132 calls
JK: JK                      :      3.567u      0.000s      2.157w    132 calls
JK: J                       :      0.000u      0.000s      0.005w     66 calls
JK: J1                      :      0.000u      0.000s      0.002w    132 calls
JK: J2                      :      0.000u      0.000s      0.002w    132 calls
JK: K                       :      0.083u      0.000s      0.050w     66 calls
JK: K1                      :      0.067u      0.000s      0.044w    132 calls
JK: K2                      :      0.017u      0.000s      0.006w    132 calls
PK computes JK              :      0.050u      0.000s      0.019w     34 calls
JK: AO2USO                  :      0.000u      0.000s      0.000w    132 calls
HF: Form F                  :      0.000u      0.000s      0.003w    132 calls
HF: DIIS                    :      0.017u      0.000s      0.018w    132 calls
DIISManager::add_entry      :      0.000u      0.000s      0.012w     60 calls
DIISManager::extrapolate    :      0.000u      0.000s      0.003w     56 calls
bMatrix setup               :      0.000u      0.000s      0.001w     56 calls
bMatrix pseudoinverse       :      0.000u      0.000s      0.001w     56 calls
New vector                  :      0.000u      0.000s      0.001w     56 calls
HF: Form C                  :      0.067u      0.017s      0.013w    132 calls
HF: Form D                  :      0.000u      0.000s      0.001w    132 calls
CIWave: CIvect write        :      0.000u      0.000s      0.002w    480 calls
CIWave: CIvect read         :      0.000u      0.050s      0.018w   6783 calls
CIWave: s2                  :      0.183u      0.000s      0.084w    484 calls
CIWave: s1                  :      0.033u      0.017s      0.022w   1100 calls
CIWave: s3                  :      0.267u      0.033s      0.211w    924 calls
CIWave: s3_mt               :      0.183u      0.017s      0.143w  49436 calls
CIWave: opdm                :      0.017u      0.000s      0.005w      4 calls
Total PK formation time     :      0.267u      0.000s      0.175w      2 calls

-----------------------------------------------------------
JK: (A|mn)                  :      0.167u      0.000s      0.096w      4 calls
JK: (A|Q)^-1/2              :      0.133u      0.017s      0.086w      4 calls
JK: (Q|mn)                  :      0.000u      0.000s      0.003w      4 calls
HF: Form H                  :      0.000u      0.017s      0.103w      6 calls
HF: Form S/X                :      0.000u      0.000s      0.001w      6 calls
HF: Guess                   :      0.000u      0.000s      0.001w      6 calls
HF: Form G                  :      3.567u      0.000s      2.160w    132 calls
| JK: D                     :      0.000u      0.000s      0.001w    132 calls
| JK: USO2AO                :      0.000u      0.000s      0.000w    132 calls
| JK: JK                    :      3.567u      0.000s      2.157w    132 calls
| | JK: J                   :      0.000u      0.000s      0.005w     66 calls
| | | JK: J1                :      0.000u      0.000s      0.002w    132 calls
| | | JK: J2                :      0.000u      0.000s      0.002w    132 calls
| | JK: K                   :      0.083u      0.000s      0.050w     66 calls
| | | JK: K1                :      0.067u      0.000s      0.044w    132 calls
| | | JK: K2                :      0.017u      0.000s      0.006w    132 calls
| | PK computes JK          :      0.050u      0.000s      0.019w     34 calls
| JK: AO2USO                :      0.000u      0.000s      0.000w    132 calls
HF: Form F                  :      0.000u      0.000s      0.003w    132 calls
HF: DIIS                    :      0.017u      0.000s      0.018w    132 calls
| DIISManager::add_entry    :      0.000u      0.000s      0.012w     60 calls
| DIISManager::extrapolate  :      0.000u      0.000s      0.003w     56 calls
| | bMatrix setup           :      0.000u      0.000s      0.001w     56 calls
| | bMatrix pseudoinverse   :      0.000u      0.000s      0.001w     56 calls
| | New vector              :      0.000u      0.000s      0.001w     56 calls
HF: Form C                  :      0.067u      0.017s      0.013w    132 calls
HF: Form D                  :      0.000u      0.000s      0.001w    132 calls
CIWave: CIvect write        :      0.000u      0.000s      0.002w    480 calls
CIWave: CIvect read         :      0.000u      0.050s      0.017w   6755 calls
CIWave: s2                  :      0.183u      0.000s      0.084w    484 calls
CIWave: s1                  :      0.033u      0.017s      0.022w   1100 calls
CIWave: s3                  :      0.267u      0.033s      0.211w    924 calls
| CIWave: s3_mt             :      0.183u      0.017s      0.143w  49436 calls
CIWave: opdm                :      0.017u      0.000s      0.005w      4 calls
| CIWave: CIvect read       :      0.000u      0.000s      0.000w     28 calls
Total PK formation time     :      0.267u      0.000s      0.175w      2 calls

***********************************************************

Host: nr092

Timers On : Sat Feb 23 16:09:07 2019
Timers Off: Sat Feb 23 16:09:15 2019

Wall Time:        7.59 seconds

JK: (A|mn)                  :      0.183u      0.000s      0.095w      4 calls
JK: (A|Q)^-1/2              :      0.133u      0.000s      0.085w      4 calls
JK: (Q|mn)                  :      0.000u      0.000s      0.003w      4 calls
HF: Form H                  :      0.000u      0.000s      0.077w      6 calls
HF: Form S/X                :      0.000u      0.000s      0.001w      6 calls
HF: Guess                   :      0.017u      0.000s      0.001w      6 calls
HF: Form G                  :      3.617u      0.017s      2.158w    132 calls
JK: D                       :      0.000u      0.000s      0.001w    132 calls
JK: USO2AO                  :      0.000u      0.000s      0.000w    132 calls
JK: JK                      :      3.617u      0.017s      2.155w    132 calls
JK: J                       :      0.000u      0.000s      0.005w     66 calls
JK: J1                      :      0.000u      0.000s      0.002w    132 calls
JK: J2                      :      0.000u      0.000s      0.002w    132 calls
JK: K                       :      0.083u      0.017s      0.050w     66 calls
JK: K1                      :      0.083u      0.017s      0.044w    132 calls
JK: K2                      :      0.000u      0.000s      0.006w    132 calls
PK computes JK              :      0.033u      0.000s      0.019w     34 calls
JK: AO2USO                  :      0.000u      0.000s      0.000w    132 calls
HF: Form F                  :      0.000u      0.000s      0.003w    132 calls
HF: DIIS                    :      0.017u      0.000s      0.017w    132 calls
DIISManager::add_entry      :      0.000u      0.000s      0.011w     60 calls
DIISManager::extrapolate    :      0.000u      0.000s      0.003w     56 calls
bMatrix setup               :      0.000u      0.000s      0.001w     56 calls
bMatrix pseudoinverse       :      0.000u      0.000s      0.001w     56 calls
New vector                  :      0.000u      0.000s      0.001w     56 calls
HF: Form C                  :      0.000u      0.000s      0.012w    132 calls
HF: Form D                  :      0.000u      0.000s      0.001w    132 calls
CIWave: CIvect write        :      0.000u      0.000s      0.002w    480 calls
CIWave: CIvect read         :      0.017u      0.017s      0.018w   6783 calls
CIWave: s2                  :      0.133u      0.017s      0.084w    484 calls
CIWave: s1                  :      0.033u      0.017s      0.022w   1100 calls
CIWave: s3                  :      0.317u      0.017s      0.210w    924 calls
CIWave: s3_mt               :      0.183u      0.017s      0.143w  49436 calls
CIWave: opdm                :      0.017u      0.000s      0.005w      4 calls
Total PK formation time     :      0.300u      0.000s      0.176w      2 calls

-----------------------------------------------------------
JK: (A|mn)                  :      0.183u      0.000s      0.095w      4 calls
JK: (A|Q)^-1/2              :      0.133u      0.000s      0.085w      4 calls
JK: (Q|mn)                  :      0.000u      0.000s      0.003w      4 calls
HF: Form H                  :      0.000u      0.000s      0.077w      6 calls
HF: Form S/X                :      0.000u      0.000s      0.001w      6 calls
HF: Guess                   :      0.017u      0.000s      0.001w      6 calls
HF: Form G                  :      3.617u      0.017s      2.158w    132 calls
| JK: D                     :      0.000u      0.000s      0.001w    132 calls
| JK: USO2AO                :      0.000u      0.000s      0.000w    132 calls
| JK: JK                    :      3.617u      0.017s      2.155w    132 calls
| | JK: J                   :      0.000u      0.000s      0.005w     66 calls
[...]
HF: Form G                  :      3.600u      0.000s      2.150w    132 calls
| JK: D                     :      0.000u      0.000s      0.001w    132 calls
| JK: USO2AO                :      0.000u      0.000s      0.000w    132 calls
| JK: JK                    :      3.600u      0.000s      2.147w    132 calls
| | JK: J                   :      0.000u      0.000s      0.005w     66 calls
| | | JK: J1                :      0.000u      0.000s      0.002w    132 calls
| | | JK: J2                :      0.000u      0.000s      0.002w    132 calls
| | JK: K                   :      0.067u      0.000s      0.050w     66 calls
| | | JK: K1                :      0.067u      0.000s      0.044w    132 calls
| | | JK: K2                :      0.000u      0.000s      0.006w    132 calls
| | PK computes JK          :      0.033u      0.000s      0.019w     34 calls
| JK: AO2USO                :      0.000u      0.000s      0.000w    132 calls
HF: Form F                  :      0.017u      0.000s      0.003w    132 calls
HF: DIIS                    :      0.000u      0.000s      0.019w    132 calls
| DIISManager::add_entry    :      0.000u      0.000s      0.013w     60 calls
| DIISManager::extrapolate  :      0.000u      0.000s      0.003w     56 calls
| | bMatrix setup           :      0.000u      0.000s      0.001w     56 calls
| | bMatrix pseudoinverse   :      0.000u      0.000s      0.001w     56 calls
| | New vector              :      0.000u      0.000s      0.001w     56 calls
HF: Form C                  :      0.000u      0.000s      0.013w    132 calls
HF: Form D                  :      0.000u      0.000s      0.001w    132 calls
CIWave: CIvect write        :      0.000u      0.000s      0.002w    480 calls
CIWave: CIvect read         :      0.000u      0.017s      0.017w   6755 calls
CIWave: s2                  :      0.117u      0.000s      0.084w    484 calls
CIWave: s1                  :      0.033u      0.000s      0.022w   1100 calls
CIWave: s3                  :      0.350u      0.050s      0.212w    924 calls
| CIWave: s3_mt             :      0.283u      0.033s      0.144w  49436 calls
CIWave: opdm                :      0.017u      0.000s      0.005w      4 calls
| CIWave: CIvect read       :      0.000u      0.000s      0.000w     28 calls
Total PK formation time     :      0.283u      0.000s      0.174w      2 calls

***********************************************************

Host: nr084

Timers On : Sat Mar  2 14:42:30 2019
Timers Off: Sat Mar  2 14:42:38 2019

Wall Time:        8.02 seconds

JK: (A|mn)                  :      0.200u      0.000s      0.096w      4 calls
JK: (A|Q)^-1/2              :      0.133u      0.017s      0.087w      4 calls
JK: (Q|mn)                  :      0.000u      0.000s      0.003w      4 calls
HF: Form H                  :      0.000u      0.000s      0.122w      6 calls
HF: Form S/X                :      0.000u      0.000s      0.001w      6 calls
HF: Guess                   :      0.000u      0.000s      0.001w      6 calls
HF: Form G                  :      3.633u      0.000s      2.152w    132 calls
JK: D                       :      0.000u      0.000s      0.001w    132 calls
JK: USO2AO                  :      0.000u      0.000s      0.000w    132 calls
JK: JK                      :      3.633u      0.000s      2.149w    132 calls
JK: J                       :      0.000u      0.000s      0.005w     66 calls
JK: J1                      :      0.000u      0.000s      0.002w    132 calls
JK: J2                      :      0.000u      0.000s      0.002w    132 calls
JK: K                       :      0.083u      0.000s      0.050w     66 calls
JK: K1                      :      0.083u      0.000s      0.044w    132 calls
JK: K2                      :      0.000u      0.000s      0.006w    132 calls
PK computes JK              :      0.050u      0.000s      0.019w     34 calls
JK: AO2USO                  :      0.000u      0.000s      0.000w    132 calls
HF: Form F                  :      0.000u      0.000s      0.003w    132 calls
HF: DIIS                    :      0.000u      0.000s      0.021w    132 calls
DIISManager::add_entry      :      0.000u      0.000s      0.015w     60 calls
DIISManager::extrapolate    :      0.000u      0.000s      0.003w     56 calls
bMatrix setup               :      0.000u      0.000s      0.001w     56 calls
bMatrix pseudoinverse       :      0.000u      0.000s      0.001w     56 calls
New vector                  :      0.000u      0.000s      0.001w     56 calls
HF: Form C                  :      0.000u      0.000s      0.013w    132 calls
HF: Form D                  :      0.000u      0.000s      0.001w    132 calls
CIWave: CIvect write        :      0.000u      0.000s      0.002w    480 calls
CIWave: CIvect read         :      0.017u      0.017s      0.017w   6783 calls
CIWave: s2                  :      0.133u      0.000s      0.084w    484 calls
CIWave: s1                  :      0.083u      0.000s      0.022w   1100 calls
CIWave: s3                  :      0.267u      0.083s      0.218w    924 calls
CIWave: s3_mt               :      0.200u      0.050s      0.150w  49436 calls
CIWave: opdm                :      0.017u      0.000s      0.005w      4 calls
Total PK formation time     :      0.283u      0.000s      0.175w      2 calls

-----------------------------------------------------------
JK: (A|mn)                  :      0.200u      0.000s      0.096w      4 calls
JK: (A|Q)^-1/2              :      0.133u      0.017s      0.087w      4 calls
JK: (Q|mn)                  :      0.000u      0.000s      0.003w      4 calls
HF: Form H                  :      0.000u      0.000s      0.122w      6 calls
HF: Form S/X                :      0.000u      0.000s      0.001w      6 calls
HF: Guess                   :      0.000u      0.000s      0.001w      6 calls
HF: Form G                  :      3.633u      0.000s      2.152w    132 calls
| JK: D                     :      0.000u      0.000s      0.001w    132 calls
| JK: USO2AO                :      0.000u      0.000s      0.000w    132 calls
| JK: JK                    :      3.633u      0.000s      2.149w    132 calls
| | JK: J                   :      0.000u      0.000s      0.005w     66 calls
| | | JK: J1                :      0.000u      0.000s      0.002w    132 calls
| | | JK: J2                :      0.000u      0.000s      0.002w    132 calls
| | JK: K                   :      0.083u      0.000s      0.050w     66 calls
| | | JK: K1                :      0.083u      0.000s      0.044w    132 calls
| | | JK: K2                :      0.000u      0.000s      0.006w    132 calls
| | PK computes JK          :      0.050u      0.000s      0.019w     34 calls
| JK: AO2USO                :      0.000u      0.000s      0.000w    132 calls
HF: Form F                  :      0.000u      0.000s      0.003w    132 calls
HF: DIIS                    :      0.000u      0.000s      0.021w    132 calls
| DIISManager::add_entry    :      0.000u      0.000s      0.015w     60 calls
| DIISManager::extrapolate  :      0.000u      0.000s      0.003w     56 calls
| | bMatrix setup           :      0.000u      0.000s      0.001w     56 calls
| | bMatrix pseudoinverse   :      0.000u      0.000s      0.001w     56 calls
| | New vector              :      0.000u      0.000s      0.001w     56 calls
HF: Form C                  :      0.000u      0.000s      0.013w    132 calls
HF: Form D                  :      0.000u      0.000s      0.001w    132 calls
CIWave: CIvect write        :      0.000u      0.000s      0.002w    480 calls
CIWave: CIvect read         :      0.017u      0.017s      0.017w   6755 calls
CIWave: s2                  :      0.133u      0.000s      0.084w    484 calls
CIWave: s1                  :      0.083u      0.000s      0.022w   1100 calls
CIWave: s3                  :      0.267u      0.083s      0.218w    924 calls
| CIWave: s3_mt             :      0.200u      0.050s      0.150w  49436 calls
CIWave: opdm                :      0.017u      0.000s      0.005w      4 calls
| CIWave: CIvect read       :      0.000u      0.000s      0.000w     28 calls
Total PK formation time     :      0.283u      0.000s      0.175w      2 calls

***********************************************************

Host: nr084

Timers On : Sat Mar  2 14:44:15 2019
Timers Off: Sat Mar  2 14:44:32 2019

Wall Time:       16.25 seconds

JK: (A|mn)                  :      0.167u      0.000s      0.096w      4 calls
JK: (A|Q)^-1/2              :      0.133u      0.000s      0.085w      4 calls
JK: (Q|mn)                  :      0.000u      0.000s      0.003w      4 calls
HF: Form H                  :      0.017u      0.000s      0.085w      6 calls
HF: Form S/X                :      0.000u      0.000s      0.001w      6 calls
HF: Guess                   :      0.000u      0.000s      0.001w      6 calls
HF: Form G                  :      3.600u      0.000s      2.145w    132 calls
JK: D                       :      0.017u      0.000s      0.001w    132 calls
JK: USO2AO                  :      0.000u      0.000s      0.000w    132 calls
JK: JK                      :      3.583u      0.000s      2.142w    132 calls
JK: J                       :      0.000u      0.000s      0.005w     66 calls
JK: J1                      :      0.000u      0.000s      0.002w    132 calls
JK: J2                      :      0.000u      0.000s      0.002w    132 calls
JK: K                       :      0.100u      0.000s      0.049w     66 calls
JK: K1                      :      0.100u      0.000s      0.043w    132 calls
JK: K2                      :      0.000u      0.000s      0.006w    132 calls
PK computes JK              :      0.017u      0.000s      0.019w     34 calls
JK: AO2USO                  :      0.000u      0.000s      0.000w    132 calls
HF: Form F                  :      0.000u      0.000s      0.003w    132 calls
HF: DIIS                    :      0.000u      0.000s      0.020w    132 calls
DIISManager::add_entry      :      0.000u      0.000s      0.014w     60 calls
DIISManager::extrapolate    :      0.000u      0.000s      0.003w     56 calls
bMatrix setup               :      0.000u      0.000s      0.001w     56 calls
bMatrix pseudoinverse       :      0.000u      0.000s      0.001w     56 calls
New vector                  :      0.000u      0.000s      0.001w     56 calls
HF: Form C                  :      0.000u      0.000s      0.013w    132 calls
HF: Form D                  :      0.000u      0.000s      0.001w    132 calls
CIWave: CIvect write        :      0.000u      0.000s      0.002w    480 calls
CIWave: CIvect read         :      0.017u      0.033s      0.018w   6783 calls
CIWave: s2                  :      0.133u      0.017s      0.083w    484 calls
CIWave: s1                  :      0.033u      0.017s      0.022w   1100 calls
CIWave: s3                  :      0.300u      0.033s      0.213w    924 calls
CIWave: s3_mt               :      0.183u      0.000s      0.144w  49436 calls
CIWave: opdm                :      0.017u      0.000s      0.005w      4 calls
Total PK formation time     :      0.300u      0.000s      0.175w      2 calls

-----------------------------------------------------------
JK: (A|mn)                  :      0.167u      0.000s      0.096w      4 calls
JK: (A|Q)^-1/2              :      0.133u      0.000s      0.085w      4 calls
JK: (Q|mn)                  :      0.000u      0.000s      0.003w      4 calls
HF: Form H                  :      0.017u      0.000s      0.085w      6 calls
HF: Form S/X                :      0.000u      0.000s      0.001w      6 calls
HF: Guess                   :      0.000u      0.000s      0.001w      6 calls
HF: Form G                  :      3.600u      0.000s      2.145w    132 calls
| JK: D                     :      0.017u      0.000s      0.001w    132 calls
| JK: USO2AO                :      0.000u      0.000s      0.000w    132 calls
| JK: JK                    :      3.583u      0.000s      2.142w    132 calls
| | JK: J                   :      0.000u      0.000s      0.005w     66 calls
| | | JK: J1                :      0.000u      0.000s      0.002w    132 calls
| | | JK: J2                :      0.000u      0.000s      0.002w    132 calls
| | JK: K                   :      0.100u      0.000s      0.049w     66 calls
| | | JK: K1                :      0.100u      0.000s      0.043w    132 calls
| | | JK: K2                :      0.000u      0.000s      0.006w    132 calls
| | PK computes JK          :      0.017u      0.000s      0.019w     34 calls
| JK: AO2USO                :      0.000u      0.000s      0.000w    132 calls
HF: Form F                  :      0.000u      0.000s      0.003w    132 calls
HF: DIIS                    :      0.000u      0.000s      0.020w    132 calls
| DIISManager::add_entry    :      0.000u      0.000s      0.014w     60 calls
| DIISManager::extrapolate  :      0.000u      0.000s      0.003w     56 calls
| | bMatrix setup           :      0.000u      0.000s      0.001w     56 calls
| | bMatrix pseudoinverse   :      0.000u      0.000s      0.001w     56 calls
| | New vector              :      0.000u      0.000s      0.001w     56 calls
HF: Form C                  :      0.000u      0.000s      0.013w    132 calls
HF: Form D                  :      0.000u      0.000s      0.001w    132 calls
CIWave: CIvect write        :      0.000u      0.000s      0.002w    480 calls
CIWave: CIvect read         :      0.017u      0.033s      0.018w   6755 calls
CIWave: s2                  :      0.133u      0.017s      0.083w    484 calls
CIWave: s1                  :      0.033u      0.017s      0.022w   1100 calls
CIWave: s3                  :      0.300u      0.033s      0.213w    924 calls
| CIWave: s3_mt             :      0.183u      0.000s      0.144w  49436 calls
CIWave: opdm                :      0.017u      0.000s      0.005w      4 calls
| CIWave: CIvect read       :      0.000u      0.000s      0.000w     28 calls
Total PK formation time     :      0.300u      0.000s      0.175w      2 calls

***********************************************************

Host: nr084

Timers On : Sat Mar  2 14:51:55 2019
Timers Off: Sat Mar  2 14:52:16 2019

Wall Time:       21.77 seconds

JK: (A|mn)                  :      0.150u      0.000s      0.095w      4 calls
JK: (A|Q)^-1/2              :      0.133u      0.017s      0.085w      4 calls
JK: (Q|mn)                  :      0.000u      0.000s      0.003w      4 calls
HF: Form H                  :      0.000u      0.000s      0.142w      6 calls
HF: Form S/X                :      0.017u      0.000s      0.001w      6 calls
HF: Guess                   :      0.000u      0.000s      0.001w      6 calls
HF: Form G                  :      3.600u      0.000s      2.152w    132 calls
JK: D                       :      0.000u      0.000s      0.001w    132 calls
JK: USO2AO                  :      0.000u      0.000s      0.000w    132 calls
JK: JK                      :      3.600u      0.000s      2.149w    132 calls
JK: J                       :      0.017u      0.000s      0.005w     66 calls
JK: J1                      :      0.000u      0.000s      0.002w    132 calls
JK: J2                      :      0.017u      0.000s      0.002w    132 calls
JK: K                       :      0.100u      0.000s      0.050w     66 calls
JK: K1                      :      0.067u      0.000s      0.044w    132 calls
JK: K2                      :      0.033u      0.000s      0.006w    132 calls
PK computes JK              :      0.017u      0.000s      0.019w     34 calls
JK: AO2USO                  :      0.000u      0.000s      0.000w    132 calls
HF: Form F                  :      0.000u      0.000s      0.003w    132 calls
HF: DIIS                    :      0.000u      0.000s      0.018w    132 calls
DIISManager::add_entry      :      0.000u      0.000s      0.012w     60 calls
DIISManager::extrapolate    :      0.000u      0.000s      0.003w     56 calls
bMatrix setup               :      0.000u      0.000s      0.001w     56 calls
bMatrix pseudoinverse       :      0.000u      0.000s      0.001w     56 calls
New vector                  :      0.000u      0.000s      0.001w     56 calls
HF: Form C                  :      0.017u      0.000s      0.013w    132 calls
HF: Form D                  :      0.000u      0.000s      0.001w    132 calls
CIWave: CIvect write        :      0.000u      0.017s      0.002w    480 calls
CIWave: CIvect read         :      0.033u      0.017s      0.018w   6783 calls
CIWave: s2                  :      0.133u      0.000s      0.084w    484 calls
CIWave: s1                  :      0.017u      0.000s      0.023w   1100 calls
CIWave: s3                  :      0.333u      0.050s      0.217w    924 calls
CIWave: s3_mt               :      0.200u      0.017s      0.147w  49436 calls
CIWave: opdm                :      0.000u      0.000s      0.005w      4 calls
Total PK formation time     :      0.300u      0.000s      0.175w      2 calls

-----------------------------------------------------------
JK: (A|mn)                  :      0.150u      0.000s      0.095w      4 calls
JK: (A|Q)^-1/2              :      0.133u      0.017s      0.085w      4 calls
JK: (Q|mn)                  :      0.000u      0.000s      0.003w      4 calls
HF: Form H                  :      0.000u      0.000s      0.142w      6 calls
HF: Form S/X                :      0.017u      0.000s      0.001w      6 calls
HF: Guess                   :      0.000u      0.000s      0.001w      6 calls
HF: Form G                  :      3.600u      0.000s      2.152w    132 calls
| JK: D                     :      0.000u      0.000s      0.001w    132 calls
| JK: USO2AO                :      0.000u      0.000s      0.000w    132 calls
| JK: JK                    :      3.600u      0.000s      2.149w    132 calls
| | JK: J                   :      0.017u      0.000s      0.005w     66 calls
| | | JK: J1                :      0.000u      0.000s      0.002w    132 calls
| | | JK: J2                :      0.017u      0.000s      0.002w    132 calls
| | JK: K                   :      0.100u      0.000s      0.050w     66 calls
| | | JK: K1                :      0.067u      0.000s      0.044w    132 calls
| | | JK: K2                :      0.033u      0.000s      0.006w    132 calls
| | PK computes JK          :      0.017u      0.000s      0.019w     34 calls
| JK: AO2USO                :      0.000u      0.000s      0.000w    132 calls
HF: Form F                  :      0.000u      0.000s      0.003w    132 calls
HF: DIIS                    :      0.000u      0.000s      0.018w    132 calls
| DIISManager::add_entry    :      0.000u      0.000s      0.012w     60 calls
| DIISManager::extrapolate  :      0.000u      0.000s      0.003w     56 calls
| | bMatrix setup           :      0.000u      0.000s      0.001w     56 calls
| | bMatrix pseudoinverse   :      0.000u      0.000s      0.001w     56 calls
| | New vector              :      0.000u      0.000s      0.001w     56 calls
HF: Form C                  :      0.017u      0.000s      0.013w    132 calls
HF: Form D                  :      0.000u      0.000s      0.001w    132 calls
CIWave: CIvect write        :      0.000u      0.017s      0.002w    480 calls
CIWave: CIvect read         :      0.033u      0.017s      0.017w   6755 calls
CIWave: s2                  :      0.133u      0.000s      0.084w    484 calls
CIWave: s1                  :      0.017u      0.000s      0.023w   1100 calls
CIWave: s3                  :      0.333u      0.050s      0.217w    924 calls
| CIWave: s3_mt             :      0.200u      0.017s      0.147w  49436 calls
CIWave: opdm                :      0.000u      0.000s      0.005w      4 calls
| CIWave: CIvect read       :      0.000u      0.000s      0.000w     28 calls
Total PK formation time     :      0.300u      0.000s      0.175w      2 calls

***********************************************************
