
Host: shannon-book.local

Timers On : Fri Jan 18 11:05:41 2019
Timers Off: Fri Jan 18 11:05:45 2019

Wall Time:        3.37 seconds

JK: (A|mn)                  :      0.017u      0.000s      0.015w      1 calls
JK: (A|Q)^-1/2              :      0.017u      0.000s      0.016w      1 calls
JK: (Q|mn)                  :      0.000u      0.000s      0.000w      1 calls
HF: Form H                  :      0.017u      0.000s      0.003w      1 calls
HF: Form S/X                :      0.000u      0.000s      0.000w      1 calls
HF: Guess                   :      0.000u      0.000s      0.000w      1 calls
HF: Form G                  :      0.550u      0.000s      0.349w     30 calls
JK: D                       :      0.000u      0.000s      0.000w     30 calls
JK: USO2AO                  :      0.000u      0.000s      0.000w     30 calls
JK: JK                      :      0.550u      0.000s      0.348w     30 calls
JK: J                       :      0.000u      0.000s      0.001w     22 calls
JK: J1                      :      0.000u      0.000s      0.001w     44 calls
JK: J2                      :      0.000u      0.000s      0.001w     44 calls
JK: K                       :      0.000u      0.000s      0.013w     22 calls
JK: K1                      :      0.000u      0.000s      0.011w     44 calls
JK: K2                      :      0.000u      0.000s      0.002w     44 calls
JK: AO2USO                  :      0.000u      0.000s      0.000w     30 calls
HF: Form F                  :      0.000u      0.000s      0.001w     30 calls
HF: DIIS                    :      0.017u      0.000s      0.003w     30 calls
DIISManager::add_entry      :      0.000u      0.000s      0.001w     11 calls
DIISManager::extrapolate    :      0.000u      0.000s      0.001w     10 calls
bMatrix setup               :      0.000u      0.000s      0.000w     10 calls
bMatrix pseudoinverse       :      0.000u      0.000s      0.000w     10 calls
New vector                  :      0.000u      0.000s      0.000w     10 calls
HF: Form C                  :      0.000u      0.000s      0.003w     30 calls
HF: Form D                  :      0.000u      0.000s      0.000w     30 calls

-----------------------------------------------------------
JK: (A|mn)                  :      0.017u      0.000s      0.015w      1 calls
JK: (A|Q)^-1/2              :      0.017u      0.000s      0.016w      1 calls
JK: (Q|mn)                  :      0.000u      0.000s      0.000w      1 calls
HF: Form H                  :      0.017u      0.000s      0.003w      1 calls
HF: Form S/X                :      0.000u      0.000s      0.000w      1 calls
HF: Guess                   :      0.000u      0.000s      0.000w      1 calls
HF: Form G                  :      0.550u      0.000s      0.349w     30 calls
| JK: D                     :      0.000u      0.000s      0.000w     30 calls
| JK: USO2AO                :      0.000u      0.000s      0.000w     30 calls
| JK: JK                    :      0.550u      0.000s      0.348w     30 calls
| | JK: J                   :      0.000u      0.000s      0.001w     22 calls
| | | JK: J1                :      0.000u      0.000s      0.001w     44 calls
| | | JK: J2                :      0.000u      0.000s      0.001w     44 calls
| | JK: K                   :      0.000u      0.000s      0.013w     22 calls
| | | JK: K1                :      0.000u      0.000s      0.011w     44 calls
| | | JK: K2                :      0.000u      0.000s      0.002w     44 calls
| JK: AO2USO                :      0.000u      0.000s      0.000w     30 calls
HF: Form F                  :      0.000u      0.000s      0.001w     30 calls
HF: DIIS                    :      0.017u      0.000s      0.003w     30 calls
| DIISManager::add_entry    :      0.000u      0.000s      0.001w     11 calls
| DIISManager::extrapolate  :      0.000u      0.000s      0.001w     10 calls
| | bMatrix setup           :      0.000u      0.000s      0.000w     10 calls
| | bMatrix pseudoinverse   :      0.000u      0.000s      0.000w     10 calls
| | New vector              :      0.000u      0.000s      0.000w     10 calls
HF: Form C                  :      0.000u      0.000s      0.003w     30 calls
HF: Form D                  :      0.000u      0.000s      0.000w     30 calls

***********************************************************

Host: shannon-book.local

Timers On : Fri Jan 18 11:08:57 2019
Timers Off: Fri Jan 18 11:08:58 2019

Wall Time:        1.82 seconds

JK: (A|mn)                  :      0.017u      0.000s      0.014w      1 calls
JK: (A|Q)^-1/2              :      0.017u      0.000s      0.012w      1 calls
JK: (Q|mn)                  :      0.000u      0.000s      0.000w      1 calls
HF: Form H                  :      0.000u      0.000s      0.003w      1 calls
HF: Form S/X                :      0.000u      0.000s      0.000w      1 calls
HF: Guess                   :      0.017u      0.000s      0.000w      1 calls
HF: Form G                  :      0.583u      0.000s      0.356w     30 calls
JK: D                       :      0.000u      0.000s      0.000w     30 calls
JK: USO2AO                  :      0.000u      0.000s      0.000w     30 calls
JK: JK                      :      0.583u      0.000s      0.355w     30 calls
JK: J                       :      0.000u      0.000s      0.002w     22 calls
JK: J1                      :      0.000u      0.000s      0.001w     44 calls
JK: J2                      :      0.000u      0.000s      0.001w     44 calls
JK: K                       :      0.033u      0.000s      0.015w     22 calls
JK: K1                      :      0.017u      0.000s      0.013w     44 calls
JK: K2                      :      0.017u      0.000s      0.002w     44 calls
JK: AO2USO                  :      0.000u      0.000s      0.000w     30 calls
HF: Form F                  :      0.000u      0.000s      0.001w     30 calls
HF: DIIS                    :      0.000u      0.000s      0.002w     30 calls
DIISManager::add_entry      :      0.000u      0.000s      0.001w     11 calls
DIISManager::extrapolate    :      0.000u      0.000s      0.001w     10 calls
bMatrix setup               :      0.000u      0.000s      0.000w     10 calls
bMatrix pseudoinverse       :      0.000u      0.000s      0.000w     10 calls
New vector                  :      0.000u      0.000s      0.000w     10 calls
HF: Form C                  :      0.017u      0.000s      0.003w     30 calls
HF: Form D                  :      0.000u      0.000s      0.000w     30 calls

-----------------------------------------------------------
JK: (A|mn)                  :      0.017u      0.000s      0.014w      1 calls
JK: (A|Q)^-1/2              :      0.017u      0.000s      0.012w      1 calls
JK: (Q|mn)                  :      0.000u      0.000s      0.000w      1 calls
HF: Form H                  :      0.000u      0.000s      0.003w      1 calls
HF: Form S/X                :      0.000u      0.000s      0.000w      1 calls
HF: Guess                   :      0.017u      0.000s      0.000w      1 calls
HF: Form G                  :      0.583u      0.000s      0.356w     30 calls
| JK: D                     :      0.000u      0.000s      0.000w     30 calls
| JK: USO2AO                :      0.000u      0.000s      0.000w     30 calls
| JK: JK                    :      0.583u      0.000s      0.355w     30 calls
| | JK: J                   :      0.000u      0.000s      0.002w     22 calls
| | | JK: J1                :      0.000u      0.000s      0.001w     44 calls
| | | JK: J2                :      0.000u      0.000s      0.001w     44 calls
| | JK: K                   :      0.033u      0.000s      0.015w     22 calls
| | | JK: K1                :      0.017u      0.000s      0.013w     44 calls
| | | JK: K2                :      0.017u      0.000s      0.002w     44 calls
| JK: AO2USO                :      0.000u      0.000s      0.000w     30 calls
HF: Form F                  :      0.000u      0.000s      0.001w     30 calls
HF: DIIS                    :      0.000u      0.000s      0.002w     30 calls
| DIISManager::add_entry    :      0.000u      0.000s      0.001w     11 calls
| DIISManager::extrapolate  :      0.000u      0.000s      0.001w     10 calls
| | bMatrix setup           :      0.000u      0.000s      0.000w     10 calls
| | bMatrix pseudoinverse   :      0.000u      0.000s      0.000w     10 calls
| | New vector              :      0.000u      0.000s      0.000w     10 calls
HF: Form C                  :      0.017u      0.000s      0.003w     30 calls
HF: Form D                  :      0.000u      0.000s      0.000w     30 calls

***********************************************************

Host: shannon-book.local

Timers On : Fri Jan 18 11:09:52 2019
Timers Off: Fri Jan 18 11:09:54 2019

Wall Time:        1.80 seconds

JK: (A|mn)                  :      0.033u      0.000s      0.014w      1 calls
JK: (A|Q)^-1/2              :      0.017u      0.000s      0.012w      1 calls
JK: (Q|mn)                  :      0.000u      0.000s      0.000w      1 calls
HF: Form H                  :      0.000u      0.000s      0.003w      1 calls
HF: Form S/X                :      0.000u      0.000s      0.000w      1 calls
HF: Guess                   :      0.000u      0.000s      0.000w      1 calls
HF: Form G                  :      0.583u      0.000s      0.349w     30 calls
JK: D                       :      0.000u      0.000s      0.000w     30 calls
JK: USO2AO                  :      0.000u      0.000s      0.000w     30 calls
JK: JK                      :      0.583u      0.000s      0.349w     30 calls
JK: J                       :      0.000u      0.000s      0.002w     22 calls
JK: J1                      :      0.000u      0.000s      0.001w     44 calls
JK: J2                      :      0.000u      0.000s      0.001w     44 calls
JK: K                       :      0.017u      0.000s      0.013w     22 calls
JK: K1                      :      0.017u      0.000s      0.011w     44 calls
JK: K2                      :      0.000u      0.000s      0.002w     44 calls
JK: AO2USO                  :      0.000u      0.000s      0.000w     30 calls
HF: Form F                  :      0.000u      0.000s      0.001w     30 calls
HF: DIIS                    :      0.000u      0.000s      0.002w     30 calls
DIISManager::add_entry      :      0.000u      0.000s      0.001w     11 calls
DIISManager::extrapolate    :      0.000u      0.000s      0.001w     10 calls
bMatrix setup               :      0.000u      0.000s      0.000w     10 calls
bMatrix pseudoinverse       :      0.000u      0.000s      0.000w     10 calls
New vector                  :      0.000u      0.000s      0.000w     10 calls
HF: Form C                  :      0.017u      0.000s      0.003w     30 calls
HF: Form D                  :      0.000u      0.000s      0.000w     30 calls

-----------------------------------------------------------
JK: (A|mn)                  :      0.033u      0.000s      0.014w      1 calls
JK: (A|Q)^-1/2              :      0.017u      0.000s      0.012w      1 calls
JK: (Q|mn)                  :      0.000u      0.000s      0.000w      1 calls
HF: Form H                  :      0.000u      0.000s      0.003w      1 calls
HF: Form S/X                :      0.000u      0.000s      0.000w      1 calls
HF: Guess                   :      0.000u      0.000s      0.000w      1 calls
HF: Form G                  :      0.583u      0.000s      0.349w     30 calls
| JK: D                     :      0.000u      0.000s      0.000w     30 calls
| JK: USO2AO                :      0.000u      0.000s      0.000w     30 calls
| JK: JK                    :      0.583u      0.000s      0.349w     30 calls
| | JK: J                   :      0.000u      0.000s      0.002w     22 calls
| | | JK: J1                :      0.000u      0.000s      0.001w     44 calls
| | | JK: J2                :      0.000u      0.000s      0.001w     44 calls
| | JK: K                   :      0.017u      0.000s      0.013w     22 calls
| | | JK: K1                :      0.017u      0.000s      0.011w     44 calls
| | | JK: K2                :      0.000u      0.000s      0.002w     44 calls
| JK: AO2USO                :      0.000u      0.000s      0.000w     30 calls
HF: Form F                  :      0.000u      0.000s      0.001w     30 calls
HF: DIIS                    :      0.000u      0.000s      0.002w     30 calls
| DIISManager::add_entry    :      0.000u      0.000s      0.001w     11 calls
| DIISManager::extrapolate  :      0.000u      0.000s      0.001w     10 calls
| | bMatrix setup           :      0.000u      0.000s      0.000w     10 calls
| | bMatrix pseudoinverse   :      0.000u      0.000s      0.000w     10 calls
| | New vector              :      0.000u      0.000s      0.000w     10 calls
HF: Form C                  :      0.017u      0.000s      0.003w     30 calls
HF: Form D                  :      0.000u      0.000s      0.000w     30 calls

***********************************************************

Host: shannon-book.local

Timers On : Fri Jan 18 11:10:30 2019
Timers Off: Fri Jan 18 11:10:32 2019

Wall Time:        1.81 seconds

JK: (A|mn)                  :      0.017u      0.000s      0.014w      1 calls
JK: (A|Q)^-1/2              :      0.017u      0.000s      0.012w      1 calls
JK: (Q|mn)                  :      0.000u      0.000s      0.000w      1 calls
HF: Form H                  :      0.000u      0.000s      0.003w      1 calls
HF: Form S/X                :      0.000u      0.000s      0.000w      1 calls
HF: Guess                   :      0.000u      0.000s      0.000w      1 calls
HF: Form G                  :      0.600u      0.000s      0.354w     30 calls
JK: D                       :      0.000u      0.000s      0.000w     30 calls
JK: USO2AO                  :      0.000u      0.000s      0.000w     30 calls
JK: JK                      :      0.600u      0.000s      0.353w     30 calls
JK: J                       :      0.017u      0.000s      0.001w     22 calls
JK: J1                      :      0.017u      0.000s      0.001w     44 calls
JK: J2                      :      0.000u      0.000s      0.001w     44 calls
JK: K                       :      0.017u      0.000s      0.014w     22 calls
JK: K1                      :      0.000u      0.000s      0.011w     44 calls
JK: K2                      :      0.017u      0.000s      0.002w     44 calls
JK: AO2USO                  :      0.000u      0.000s      0.000w     30 calls
HF: Form F                  :      0.000u      0.000s      0.001w     30 calls
HF: DIIS                    :      0.000u      0.000s      0.002w     30 calls
DIISManager::add_entry      :      0.000u      0.000s      0.001w     11 calls
DIISManager::extrapolate    :      0.000u      0.000s      0.001w     10 calls
bMatrix setup               :      0.000u      0.000s      0.000w     10 calls
bMatrix pseudoinverse       :      0.000u      0.000s      0.000w     10 calls
New vector                  :      0.000u      0.000s      0.000w     10 calls
HF: Form C                  :      0.000u      0.000s      0.003w     30 calls
HF: Form D                  :      0.000u      0.000s      0.000w     30 calls

-----------------------------------------------------------
JK: (A|mn)                  :      0.017u      0.000s      0.014w      1 calls
JK: (A|Q)^-1/2              :      0.017u      0.000s      0.012w      1 calls
JK: (Q|mn)                  :      0.000u      0.000s      0.000w      1 calls
HF: Form H                  :      0.000u      0.000s      0.003w      1 calls
HF: Form S/X                :      0.000u      0.000s      0.000w      1 calls
HF: Guess                   :      0.000u      0.000s      0.000w      1 calls
HF: Form G                  :      0.600u      0.000s      0.354w     30 calls
| JK: D                     :      0.000u      0.000s      0.000w     30 calls
| JK: USO2AO                :      0.000u      0.000s      0.000w     30 calls
| JK: JK                    :      0.600u      0.000s      0.353w     30 calls
| | JK: J                   :      0.017u      0.000s      0.001w     22 calls
| | | JK: J1                :      0.017u      0.000s      0.001w     44 calls
| | | JK: J2                :      0.000u      0.000s      0.001w     44 calls
| | JK: K                   :      0.017u      0.000s      0.014w     22 calls
| | | JK: K1                :      0.000u      0.000s      0.011w     44 calls
| | | JK: K2                :      0.017u      0.000s      0.002w     44 calls
| JK: AO2USO                :      0.000u      0.000s      0.000w     30 calls
HF: Form F                  :      0.000u      0.000s      0.001w     30 calls
HF: DIIS                    :      0.000u      0.000s      0.002w     30 calls
| DIISManager::add_entry    :      0.000u      0.000s      0.001w     11 calls
| DIISManager::extrapolate  :      0.000u      0.000s      0.001w     10 calls
| | bMatrix setup           :      0.000u      0.000s      0.000w     10 calls
| | bMatrix pseudoinverse   :      0.000u      0.000s      0.000w     10 calls
| | New vector              :      0.000u      0.000s      0.000w     10 calls
HF: Form C                  :      0.000u      0.000s      0.003w     30 calls
HF: Form D                  :      0.000u      0.000s      0.000w     30 calls

***********************************************************

Host: shannon-book.local

Timers On : Fri Jan 18 11:10:57 2019
Timers Off: Fri Jan 18 11:10:59 2019

Wall Time:        1.84 seconds

JK: (A|mn)                  :      0.033u      0.000s      0.014w      1 calls
JK: (A|Q)^-1/2              :      0.017u      0.000s      0.012w      1 calls
JK: (Q|mn)                  :      0.000u      0.000s      0.000w      1 calls
HF: Form H                  :      0.000u      0.000s      0.003w      1 calls
HF: Form S/X                :      0.000u      0.000s      0.000w      1 calls
HF: Guess                   :      0.000u      0.000s      0.000w      1 calls
HF: Form G                  :      0.583u      0.000s      0.349w     30 calls
JK: D                       :      0.000u      0.000s      0.000w     30 calls
JK: USO2AO                  :      0.000u      0.000s      0.000w     30 calls
JK: JK                      :      0.583u      0.000s      0.348w     30 calls
JK: J                       :      0.000u      0.000s      0.001w     22 calls
JK: J1                      :      0.000u      0.000s      0.001w     44 calls
JK: J2                      :      0.000u      0.000s      0.001w     44 calls
JK: K                       :      0.033u      0.000s      0.013w     22 calls
JK: K1                      :      0.017u      0.000s      0.011w     44 calls
JK: K2                      :      0.017u      0.000s      0.002w     44 calls
JK: AO2USO                  :      0.000u      0.000s      0.000w     30 calls
HF: Form F                  :      0.000u      0.000s      0.001w     30 calls
HF: DIIS                    :      0.000u      0.017s      0.002w     30 calls
DIISManager::add_entry      :      0.000u      0.017s      0.001w     11 calls
DIISManager::extrapolate    :      0.000u      0.000s      0.001w     10 calls
bMatrix setup               :      0.000u      0.000s      0.000w     10 calls
bMatrix pseudoinverse       :      0.000u      0.000s      0.000w     10 calls
New vector                  :      0.000u      0.000s      0.000w     10 calls
HF: Form C                  :      0.000u      0.000s      0.003w     30 calls
HF: Form D                  :      0.000u      0.000s      0.000w     30 calls

-----------------------------------------------------------
JK: (A|mn)                  :      0.033u      0.000s      0.014w      1 calls
JK: (A|Q)^-1/2              :      0.017u      0.000s      0.012w      1 calls
JK: (Q|mn)                  :      0.000u      0.000s      0.000w      1 calls
HF: Form H                  :      0.000u      0.000s      0.003w      1 calls
HF: Form S/X                :      0.000u      0.000s      0.000w      1 calls
HF: Guess                   :      0.000u      0.000s      0.000w      1 calls
HF: Form G                  :      0.583u      0.000s      0.349w     30 calls
| JK: D                     :      0.000u      0.000s      0.000w     30 calls
| JK: USO2AO                :      0.000u      0.000s      0.000w     30 calls
| JK: JK                    :      0.583u      0.000s      0.348w     30 calls
| | JK: J                   :      0.000u      0.000s      0.001w     22 calls
| | | JK: J1                :      0.000u      0.000s      0.001w     44 calls
| | | JK: J2                :      0.000u      0.000s      0.001w     44 calls
| | JK: K                   :      0.033u      0.000s      0.013w     22 calls
| | | JK: K1                :      0.017u      0.000s      0.011w     44 calls
| | | JK: K2                :      0.017u      0.000s      0.002w     44 calls
| JK: AO2USO                :      0.000u      0.000s      0.000w     30 calls
HF: Form F                  :      0.000u      0.000s      0.001w     30 calls
HF: DIIS                    :      0.000u      0.017s      0.002w     30 calls
| DIISManager::add_entry    :      0.000u      0.017s      0.001w     11 calls
| DIISManager::extrapolate  :      0.000u      0.000s      0.001w     10 calls
| | bMatrix setup           :      0.000u      0.000s      0.000w     10 calls
| | bMatrix pseudoinverse   :      0.000u      0.000s      0.000w     10 calls
| | New vector              :      0.000u      0.000s      0.000w     10 calls
HF: Form C                  :      0.000u      0.000s      0.003w     30 calls
HF: Form D                  :      0.000u      0.000s      0.000w     30 calls

***********************************************************

Host: shannon-book.local

Timers On : Fri Jan 18 11:12:04 2019
Timers Off: Fri Jan 18 11:12:06 2019

Wall Time:        1.75 seconds

JK: (A|mn)                  :      0.017u      0.000s      0.014w      1 calls
JK: (A|Q)^-1/2              :      0.033u      0.000s      0.014w      1 calls
JK: (Q|mn)                  :      0.000u      0.000s      0.000w      1 calls
HF: Form H                  :      0.000u      0.000s      0.003w      1 calls
HF: Form S/X                :      0.000u      0.000s      0.000w      1 calls
HF: Guess                   :      0.000u      0.000s      0.000w      1 calls
HF: Form G                  :      0.600u      0.000s      0.352w     30 calls
JK: D                       :      0.000u      0.000s      0.000w     30 calls
JK: USO2AO                  :      0.000u      0.000s      0.000w     30 calls
JK: JK                      :      0.600u      0.000s      0.351w     30 calls
JK: J                       :      0.000u      0.000s      0.001w     22 calls
JK: J1                      :      0.000u      0.000s      0.001w     44 calls
JK: J2                      :      0.000u      0.000s      0.001w     44 calls
JK: K                       :      0.033u      0.000s      0.013w     22 calls
JK: K1                      :      0.033u      0.000s      0.011w     44 calls
JK: K2                      :      0.000u      0.000s      0.002w     44 calls
JK: AO2USO                  :      0.000u      0.000s      0.000w     30 calls
HF: Form F                  :      0.000u      0.000s      0.001w     30 calls
HF: DIIS                    :      0.000u      0.000s      0.002w     30 calls
DIISManager::add_entry      :      0.000u      0.000s      0.001w     11 calls
DIISManager::extrapolate    :      0.000u      0.000s      0.001w     10 calls
bMatrix setup               :      0.000u      0.000s      0.000w     10 calls
bMatrix pseudoinverse       :      0.000u      0.000s      0.000w     10 calls
New vector                  :      0.000u      0.000s      0.000w     10 calls
HF: Form C                  :      0.000u      0.000s      0.003w     30 calls
HF: Form D                  :      0.000u      0.000s      0.000w     30 calls

-----------------------------------------------------------
JK: (A|mn)                  :      0.017u      0.000s      0.014w      1 calls
JK: (A|Q)^-1/2              :      0.033u      0.000s      0.014w      1 calls
JK: (Q|mn)                  :      0.000u      0.000s      0.000w      1 calls
HF: Form H                  :      0.000u      0.000s      0.003w      1 calls
HF: Form S/X                :      0.000u      0.000s      0.000w      1 calls
HF: Guess                   :      0.000u      0.000s      0.000w      1 calls
HF: Form G                  :      0.600u      0.000s      0.352w     30 calls
| JK: D                     :      0.000u      0.000s      0.000w     30 calls
| JK: USO2AO                :      0.000u      0.000s      0.000w     30 calls
| JK: JK                    :      0.600u      0.000s      0.351w     30 calls
| | JK: J                   :      0.000u      0.000s      0.001w     22 calls
| | | JK: J1                :      0.000u      0.000s      0.001w     44 calls
| | | JK: J2                :      0.000u      0.000s      0.001w     44 calls
| | JK: K                   :      0.033u      0.000s      0.013w     22 calls
| | | JK: K1                :      0.033u      0.000s      0.011w     44 calls
| | | JK: K2                :      0.000u      0.000s      0.002w     44 calls
| JK: AO2USO                :      0.000u      0.000s      0.000w     30 calls
HF: Form F                  :      0.000u      0.000s      0.001w     30 calls
HF: DIIS                    :      0.000u      0.000s      0.002w     30 calls
| DIISManager::add_entry    :      0.000u      0.000s      0.001w     11 calls
| DIISManager::extrapolate  :      0.000u      0.000s      0.001w     10 calls
| | bMatrix setup           :      0.000u      0.000s      0.000w     10 calls
| | bMatrix pseudoinverse   :      0.000u      0.000s      0.000w     10 calls
| | New vector              :      0.000u      0.000s      0.000w     10 calls
HF: Form C                  :      0.000u      0.000s      0.003w     30 calls
HF: Form D                  :      0.000u      0.000s      0.000w     30 calls

***********************************************************

Host: shannon-book.local

Timers On : Fri Jan 18 11:13:56 2019
Timers Off: Fri Jan 18 11:13:58 2019

Wall Time:        2.82 seconds

JK: (A|mn)                  :      0.050u      0.000s      0.030w      2 calls
JK: (A|Q)^-1/2              :      0.050u      0.000s      0.024w      2 calls
JK: (Q|mn)                  :      0.000u      0.000s      0.001w      2 calls
HF: Form H                  :      0.000u      0.017s      0.007w      2 calls
HF: Form S/X                :      0.000u      0.000s      0.001w      2 calls
HF: Guess                   :      0.000u      0.000s      0.000w      2 calls
HF: Form G                  :      1.133u      0.000s      0.705w     60 calls
JK: D                       :      0.000u      0.000s      0.000w     60 calls
JK: USO2AO                  :      0.000u      0.000s      0.000w     60 calls
JK: JK                      :      1.133u      0.000s      0.704w     60 calls
JK: J                       :      0.000u      0.000s      0.004w     44 calls
JK: J1                      :      0.000u      0.000s      0.002w     88 calls
JK: J2                      :      0.000u      0.000s      0.002w     88 calls
JK: K                       :      0.050u      0.000s      0.029w     44 calls
JK: K1                      :      0.050u      0.000s      0.025w     88 calls
JK: K2                      :      0.000u      0.000s      0.004w     88 calls
JK: AO2USO                  :      0.000u      0.000s      0.000w     60 calls
HF: Form F                  :      0.000u      0.000s      0.002w     60 calls
HF: DIIS                    :      0.000u      0.017s      0.005w     60 calls
DIISManager::add_entry      :      0.000u      0.000s      0.002w     22 calls
DIISManager::extrapolate    :      0.000u      0.000s      0.001w     20 calls
bMatrix setup               :      0.000u      0.000s      0.000w     20 calls
bMatrix pseudoinverse       :      0.000u      0.000s      0.000w     20 calls
New vector                  :      0.000u      0.000s      0.000w     20 calls
HF: Form C                  :      0.033u      0.000s      0.007w     60 calls
HF: Form D                  :      0.000u      0.000s      0.000w     60 calls

-----------------------------------------------------------
JK: (A|mn)                  :      0.050u      0.000s      0.030w      2 calls
JK: (A|Q)^-1/2              :      0.050u      0.000s      0.024w      2 calls
JK: (Q|mn)                  :      0.000u      0.000s      0.001w      2 calls
HF: Form H                  :      0.000u      0.017s      0.007w      2 calls
HF: Form S/X                :      0.000u      0.000s      0.001w      2 calls
HF: Guess                   :      0.000u      0.000s      0.000w      2 calls
HF: Form G                  :      1.133u      0.000s      0.705w     60 calls
| JK: D                     :      0.000u      0.000s      0.000w     60 calls
| JK: USO2AO                :      0.000u      0.000s      0.000w     60 calls
| JK: JK                    :      1.133u      0.000s      0.704w     60 calls
| | JK: J                   :      0.000u      0.000s      0.004w     44 calls
| | | JK: J1                :      0.000u      0.000s      0.002w     88 calls
| | | JK: J2                :      0.000u      0.000s      0.002w     88 calls
| | JK: K                   :      0.050u      0.000s      0.029w     44 calls
| | | JK: K1                :      0.050u      0.000s      0.025w     88 calls
| | | JK: K2                :      0.000u      0.000s      0.004w     88 calls
| JK: AO2USO                :      0.000u      0.000s      0.000w     60 calls
HF: Form F                  :      0.000u      0.000s      0.002w     60 calls
HF: DIIS                    :      0.000u      0.017s      0.005w     60 calls
| DIISManager::add_entry    :      0.000u      0.000s      0.002w     22 calls
| DIISManager::extrapolate  :      0.000u      0.000s      0.001w     20 calls
| | bMatrix setup           :      0.000u      0.000s      0.000w     20 calls
| | bMatrix pseudoinverse   :      0.000u      0.000s      0.000w     20 calls
| | New vector              :      0.000u      0.000s      0.000w     20 calls
HF: Form C                  :      0.033u      0.000s      0.007w     60 calls
HF: Form D                  :      0.000u      0.000s      0.000w     60 calls

***********************************************************

Host: shannon-book.local

Timers On : Fri Jan 18 11:16:23 2019
Timers Off: Fri Jan 18 11:16:25 2019

Wall Time:        2.75 seconds

JK: (A|mn)                  :      0.050u      0.000s      0.029w      2 calls
JK: (A|Q)^-1/2              :      0.033u      0.000s      0.023w      2 calls
JK: (Q|mn)                  :      0.000u      0.000s      0.001w      2 calls
HF: Form H                  :      0.000u      0.000s      0.005w      2 calls
HF: Form S/X                :      0.000u      0.000s      0.000w      2 calls
HF: Guess                   :      0.000u      0.000s      0.000w      2 calls
HF: Form G                  :      1.167u      0.017s      0.699w     60 calls
JK: D                       :      0.000u      0.000s      0.000w     60 calls
JK: USO2AO                  :      0.000u      0.000s      0.000w     60 calls
JK: JK                      :      1.167u      0.017s      0.697w     60 calls
JK: J                       :      0.017u      0.000s      0.003w     44 calls
JK: J1                      :      0.000u      0.000s      0.001w     88 calls
JK: J2                      :      0.017u      0.000s      0.001w     88 calls
JK: K                       :      0.033u      0.000s      0.026w     44 calls
JK: K1                      :      0.033u      0.000s      0.022w     88 calls
JK: K2                      :      0.000u      0.000s      0.004w     88 calls
JK: AO2USO                  :      0.000u      0.000s      0.000w     60 calls
HF: Form F                  :      0.017u      0.000s      0.002w     60 calls
HF: DIIS                    :      0.000u      0.000s      0.004w     60 calls
DIISManager::add_entry      :      0.000u      0.000s      0.002w     22 calls
DIISManager::extrapolate    :      0.000u      0.000s      0.001w     20 calls
bMatrix setup               :      0.000u      0.000s      0.000w     20 calls
bMatrix pseudoinverse       :      0.000u      0.000s      0.000w     20 calls
New vector                  :      0.000u      0.000s      0.000w     20 calls
HF: Form C                  :      0.000u      0.000s      0.006w     60 calls
HF: Form D                  :      0.000u      0.000s      0.000w     60 calls

-----------------------------------------------------------
JK: (A|mn)                  :      0.050u      0.000s      0.029w      2 calls
JK: (A|Q)^-1/2              :      0.033u      0.000s      0.023w      2 calls
JK: (Q|mn)                  :      0.000u      0.000s      0.001w      2 calls
HF: Form H                  :      0.000u      0.000s      0.005w      2 calls
HF: Form S/X                :      0.000u      0.000s      0.000w      2 calls
HF: Guess                   :      0.000u      0.000s      0.000w      2 calls
HF: Form G                  :      1.167u      0.017s      0.699w     60 calls
| JK: D                     :      0.000u      0.000s      0.000w     60 calls
| JK: USO2AO                :      0.000u      0.000s      0.000w     60 calls
| JK: JK                    :      1.167u      0.017s      0.697w     60 calls
| | JK: J                   :      0.017u      0.000s      0.003w     44 calls
| | | JK: J1                :      0.000u      0.000s      0.001w     88 calls
| | | JK: J2                :      0.017u      0.000s      0.001w     88 calls
| | JK: K                   :      0.033u      0.000s      0.026w     44 calls
| | | JK: K1                :      0.033u      0.000s      0.022w     88 calls
| | | JK: K2                :      0.000u      0.000s      0.004w     88 calls
| JK: AO2USO                :      0.000u      0.000s      0.000w     60 calls
HF: Form F                  :      0.017u      0.000s      0.002w     60 calls
HF: DIIS                    :      0.000u      0.000s      0.004w     60 calls
| DIISManager::add_entry    :      0.000u      0.000s      0.002w     22 calls
| DIISManager::extrapolate  :      0.000u      0.000s      0.001w     20 calls
| | bMatrix setup           :      0.000u      0.000s      0.000w     20 calls
| | bMatrix pseudoinverse   :      0.000u      0.000s      0.000w     20 calls
| | New vector              :      0.000u      0.000s      0.000w     20 calls
HF: Form C                  :      0.000u      0.000s      0.006w     60 calls
HF: Form D                  :      0.000u      0.000s      0.000w     60 calls

***********************************************************

Host: shannon-book.local

Timers On : Fri Jan 18 11:17:59 2019
Timers Off: Fri Jan 18 11:18:01 2019

Wall Time:        2.70 seconds

JK: (A|mn)                  :      0.067u      0.000s      0.031w      2 calls
JK: (A|Q)^-1/2              :      0.033u      0.000s      0.023w      2 calls
JK: (Q|mn)                  :      0.000u      0.000s      0.001w      2 calls
HF: Form H                  :      0.000u      0.000s      0.006w      2 calls
HF: Form S/X                :      0.000u      0.000s      0.000w      2 calls
HF: Guess                   :      0.000u      0.000s      0.000w      2 calls
HF: Form G                  :      1.133u      0.017s      0.708w     60 calls
JK: D                       :      0.000u      0.000s      0.000w     60 calls
JK: USO2AO                  :      0.000u      0.000s      0.000w     60 calls
JK: JK                      :      1.133u      0.017s      0.706w     60 calls
JK: J                       :      0.017u      0.017s      0.003w     44 calls
JK: J1                      :      0.000u      0.017s      0.001w     88 calls
JK: J2                      :      0.000u      0.000s      0.001w     88 calls
JK: K                       :      0.033u      0.000s      0.028w     44 calls
JK: K1                      :      0.033u      0.000s      0.023w     88 calls
JK: K2                      :      0.000u      0.000s      0.004w     88 calls
JK: AO2USO                  :      0.000u      0.000s      0.000w     60 calls
HF: Form F                  :      0.033u      0.000s      0.002w     60 calls
HF: DIIS                    :      0.017u      0.000s      0.004w     60 calls
DIISManager::add_entry      :      0.000u      0.000s      0.002w     22 calls
DIISManager::extrapolate    :      0.017u      0.000s      0.001w     20 calls
bMatrix setup               :      0.000u      0.000s      0.000w     20 calls
bMatrix pseudoinverse       :      0.017u      0.000s      0.000w     20 calls
New vector                  :      0.000u      0.000s      0.000w     20 calls
HF: Form C                  :      0.000u      0.000s      0.006w     60 calls
HF: Form D                  :      0.000u      0.000s      0.000w     60 calls

-----------------------------------------------------------
JK: (A|mn)                  :      0.067u      0.000s      0.031w      2 calls
JK: (A|Q)^-1/2              :      0.033u      0.000s      0.023w      2 calls
JK: (Q|mn)                  :      0.000u      0.000s      0.001w      2 calls
HF: Form H                  :      0.000u      0.000s      0.006w      2 calls
HF: Form S/X                :      0.000u      0.000s      0.000w      2 calls
HF: Guess                   :      0.000u      0.000s      0.000w      2 calls
HF: Form G                  :      1.133u      0.017s      0.708w     60 calls
| JK: D                     :      0.000u      0.000s      0.000w     60 calls
| JK: USO2AO                :      0.000u      0.000s      0.000w     60 calls
| JK: JK                    :      1.133u      0.017s      0.706w     60 calls
| | JK: J                   :      0.017u      0.017s      0.003w     44 calls
| | | JK: J1                :      0.000u      0.017s      0.001w     88 calls
| | | JK: J2                :      0.000u      0.000s      0.001w     88 calls
| | JK: K                   :      0.033u      0.000s      0.028w     44 calls
| | | JK: K1                :      0.033u      0.000s      0.023w     88 calls
| | | JK: K2                :      0.000u      0.000s      0.004w     88 calls
| JK: AO2USO                :      0.000u      0.000s      0.000w     60 calls
HF: Form F                  :      0.033u      0.000s      0.002w     60 calls
HF: DIIS                    :      0.017u      0.000s      0.004w     60 calls
| DIISManager::add_entry    :      0.000u      0.000s      0.002w     22 calls
| DIISManager::extrapolate  :      0.017u      0.000s      0.001w     20 calls
| | bMatrix setup           :      0.000u      0.000s      0.000w     20 calls
| | bMatrix pseudoinverse   :      0.017u      0.000s      0.000w     20 calls
| | New vector              :      0.000u      0.000s      0.000w     20 calls
HF: Form C                  :      0.000u      0.000s      0.006w     60 calls
HF: Form D                  :      0.000u      0.000s      0.000w     60 calls

***********************************************************

Host: shannon-book.local

Timers On : Fri Jan 18 11:18:44 2019
Timers Off: Fri Jan 18 11:18:47 2019

Wall Time:        2.64 seconds

JK: (A|mn)                  :      0.050u      0.000s      0.029w      2 calls
JK: (A|Q)^-1/2              :      0.033u      0.000s      0.023w      2 calls
JK: (Q|mn)                  :      0.000u      0.000s      0.001w      2 calls
HF: Form H                  :      0.000u      0.000s      0.006w      2 calls
HF: Form S/X                :      0.017u      0.000s      0.000w      2 calls
HF: Guess                   :      0.000u      0.000s      0.000w      2 calls
HF: Form G                  :      1.133u      0.000s      0.690w     60 calls
JK: D                       :      0.000u      0.000s      0.000w     60 calls
JK: USO2AO                  :      0.000u      0.000s      0.000w     60 calls
JK: JK                      :      1.133u      0.000s      0.689w     60 calls
JK: J                       :      0.000u      0.000s      0.003w     44 calls
JK: J1                      :      0.000u      0.000s      0.001w     88 calls
JK: J2                      :      0.000u      0.000s      0.001w     88 calls
JK: K                       :      0.033u      0.000s      0.027w     44 calls
JK: K1                      :      0.033u      0.000s      0.023w     88 calls
JK: K2                      :      0.000u      0.000s      0.004w     88 calls
JK: AO2USO                  :      0.000u      0.000s      0.000w     60 calls
HF: Form F                  :      0.000u      0.000s      0.002w     60 calls
HF: DIIS                    :      0.017u      0.000s      0.004w     60 calls
DIISManager::add_entry      :      0.000u      0.000s      0.001w     22 calls
DIISManager::extrapolate    :      0.000u      0.000s      0.001w     20 calls
bMatrix setup               :      0.000u      0.000s      0.000w     20 calls
bMatrix pseudoinverse       :      0.000u      0.000s      0.000w     20 calls
New vector                  :      0.000u      0.000s      0.000w     20 calls
HF: Form C                  :      0.017u      0.000s      0.006w     60 calls
HF: Form D                  :      0.000u      0.000s      0.000w     60 calls

-----------------------------------------------------------
JK: (A|mn)                  :      0.050u      0.000s      0.029w      2 calls
JK: (A|Q)^-1/2              :      0.033u      0.000s      0.023w      2 calls
JK: (Q|mn)                  :      0.000u      0.000s      0.001w      2 calls
HF: Form H                  :      0.000u      0.000s      0.006w      2 calls
HF: Form S/X                :      0.017u      0.000s      0.000w      2 calls
HF: Guess                   :      0.000u      0.000s      0.000w      2 calls
HF: Form G                  :      1.133u      0.000s      0.690w     60 calls
| JK: D                     :      0.000u      0.000s      0.000w     60 calls
| JK: USO2AO                :      0.000u      0.000s      0.000w     60 calls
| JK: JK                    :      1.133u      0.000s      0.689w     60 calls
| | JK: J                   :      0.000u      0.000s      0.003w     44 calls
| | | JK: J1                :      0.000u      0.000s      0.001w     88 calls
| | | JK: J2                :      0.000u      0.000s      0.001w     88 calls
| | JK: K                   :      0.033u      0.000s      0.027w     44 calls
| | | JK: K1                :      0.033u      0.000s      0.023w     88 calls
| | | JK: K2                :      0.000u      0.000s      0.004w     88 calls
| JK: AO2USO                :      0.000u      0.000s      0.000w     60 calls
HF: Form F                  :      0.000u      0.000s      0.002w     60 calls
HF: DIIS                    :      0.017u      0.000s      0.004w     60 calls
| DIISManager::add_entry    :      0.000u      0.000s      0.001w     22 calls
| DIISManager::extrapolate  :      0.000u      0.000s      0.001w     20 calls
| | bMatrix setup           :      0.000u      0.000s      0.000w     20 calls
| | bMatrix pseudoinverse   :      0.000u      0.000s      0.000w     20 calls
| | New vector              :      0.000u      0.000s      0.000w     20 calls
HF: Form C                  :      0.017u      0.000s      0.006w     60 calls
HF: Form D                  :      0.000u      0.000s      0.000w     60 calls

***********************************************************

Host: shannon-book.local

Timers On : Fri Jan 18 11:19:51 2019
Timers Off: Fri Jan 18 11:19:54 2019

Wall Time:        3.63 seconds

JK: (A|mn)                  :      0.050u      0.000s      0.044w      3 calls
JK: (A|Q)^-1/2              :      0.083u      0.000s      0.035w      3 calls
JK: (Q|mn)                  :      0.000u      0.000s      0.001w      3 calls
HF: Form H                  :      0.000u      0.000s      0.009w      3 calls
HF: Form S/X                :      0.000u      0.000s      0.001w      3 calls
HF: Guess                   :      0.000u      0.000s      0.001w      3 calls
HF: Form G                  :      1.717u      0.033s      1.044w     90 calls
JK: D                       :      0.000u      0.000s      0.001w     90 calls
JK: USO2AO                  :      0.000u      0.000s      0.000w     90 calls
JK: JK                      :      1.717u      0.033s      1.042w     90 calls
JK: J                       :      0.017u      0.000s      0.005w     66 calls
JK: J1                      :      0.017u      0.000s      0.002w    132 calls
JK: J2                      :      0.000u      0.000s      0.002w    132 calls
JK: K                       :      0.050u      0.017s      0.042w     66 calls
JK: K1                      :      0.050u      0.000s      0.035w    132 calls
JK: K2                      :      0.000u      0.017s      0.006w    132 calls
JK: AO2USO                  :      0.000u      0.000s      0.000w     90 calls
HF: Form F                  :      0.000u      0.000s      0.003w     90 calls
HF: DIIS                    :      0.000u      0.000s      0.007w     90 calls
DIISManager::add_entry      :      0.000u      0.000s      0.002w     33 calls
DIISManager::extrapolate    :      0.000u      0.000s      0.002w     30 calls
bMatrix setup               :      0.000u      0.000s      0.001w     30 calls
bMatrix pseudoinverse       :      0.000u      0.000s      0.001w     30 calls
New vector                  :      0.000u      0.000s      0.001w     30 calls
HF: Form C                  :      0.033u      0.000s      0.009w     90 calls
HF: Form D                  :      0.000u      0.000s      0.001w     90 calls

-----------------------------------------------------------
JK: (A|mn)                  :      0.050u      0.000s      0.044w      3 calls
JK: (A|Q)^-1/2              :      0.083u      0.000s      0.035w      3 calls
JK: (Q|mn)                  :      0.000u      0.000s      0.001w      3 calls
HF: Form H                  :      0.000u      0.000s      0.009w      3 calls
HF: Form S/X                :      0.000u      0.000s      0.001w      3 calls
HF: Guess                   :      0.000u      0.000s      0.001w      3 calls
HF: Form G                  :      1.717u      0.033s      1.044w     90 calls
| JK: D                     :      0.000u      0.000s      0.001w     90 calls
| JK: USO2AO                :      0.000u      0.000s      0.000w     90 calls
| JK: JK                    :      1.717u      0.033s      1.042w     90 calls
| | JK: J                   :      0.017u      0.000s      0.005w     66 calls
| | | JK: J1                :      0.017u      0.000s      0.002w    132 calls
| | | JK: J2                :      0.000u      0.000s      0.002w    132 calls
| | JK: K                   :      0.050u      0.017s      0.042w     66 calls
| | | JK: K1                :      0.050u      0.000s      0.035w    132 calls
| | | JK: K2                :      0.000u      0.017s      0.006w    132 calls
| JK: AO2USO                :      0.000u      0.000s      0.000w     90 calls
HF: Form F                  :      0.000u      0.000s      0.003w     90 calls
HF: DIIS                    :      0.000u      0.000s      0.007w     90 calls
| DIISManager::add_entry    :      0.000u      0.000s      0.002w     33 calls
| DIISManager::extrapolate  :      0.000u      0.000s      0.002w     30 calls
| | bMatrix setup           :      0.000u      0.000s      0.001w     30 calls
| | bMatrix pseudoinverse   :      0.000u      0.000s      0.001w     30 calls
| | New vector              :      0.000u      0.000s      0.001w     30 calls
HF: Form C                  :      0.033u      0.000s      0.009w     90 calls
HF: Form D                  :      0.000u      0.000s      0.001w     90 calls

***********************************************************

Host: shannon-book.local

Timers On : Fri Jan 18 11:20:41 2019
Timers Off: Fri Jan 18 11:20:44 2019

Wall Time:        3.52 seconds

JK: (A|mn)                  :      0.083u      0.000s      0.043w      3 calls
JK: (A|Q)^-1/2              :      0.050u      0.000s      0.035w      3 calls
JK: (Q|mn)                  :      0.000u      0.000s      0.001w      3 calls
HF: Form H                  :      0.000u      0.000s      0.009w      3 calls
HF: Form S/X                :      0.000u      0.000s      0.001w      3 calls
HF: Guess                   :      0.000u      0.000s      0.001w      3 calls
HF: Form G                  :      1.750u      0.000s      1.045w     90 calls
JK: D                       :      0.000u      0.000s      0.001w     90 calls
JK: USO2AO                  :      0.000u      0.000s      0.000w     90 calls
JK: JK                      :      1.750u      0.000s      1.043w     90 calls
JK: J                       :      0.017u      0.000s      0.004w     66 calls
JK: J1                      :      0.000u      0.000s      0.002w    132 calls
JK: J2                      :      0.017u      0.000s      0.002w    132 calls
JK: K                       :      0.067u      0.000s      0.040w     66 calls
JK: K1                      :      0.067u      0.000s      0.033w    132 calls
JK: K2                      :      0.000u      0.000s      0.006w    132 calls
JK: AO2USO                  :      0.000u      0.000s      0.000w     90 calls
HF: Form F                  :      0.000u      0.000s      0.002w     90 calls
HF: DIIS                    :      0.033u      0.000s      0.007w     90 calls
DIISManager::add_entry      :      0.000u      0.000s      0.002w     33 calls
DIISManager::extrapolate    :      0.000u      0.000s      0.002w     30 calls
bMatrix setup               :      0.000u      0.000s      0.001w     30 calls
bMatrix pseudoinverse       :      0.000u      0.000s      0.001w     30 calls
New vector                  :      0.000u      0.000s      0.001w     30 calls
HF: Form C                  :      0.000u      0.000s      0.009w     90 calls
HF: Form D                  :      0.000u      0.000s      0.001w     90 calls

-----------------------------------------------------------
JK: (A|mn)                  :      0.083u      0.000s      0.043w      3 calls
JK: (A|Q)^-1/2              :      0.050u      0.000s      0.035w      3 calls
JK: (Q|mn)                  :      0.000u      0.000s      0.001w      3 calls
HF: Form H                  :      0.000u      0.000s      0.009w      3 calls
HF: Form S/X                :      0.000u      0.000s      0.001w      3 calls
HF: Guess                   :      0.000u      0.000s      0.001w      3 calls
HF: Form G                  :      1.750u      0.000s      1.045w     90 calls
| JK: D                     :      0.000u      0.000s      0.001w     90 calls
| JK: USO2AO                :      0.000u      0.000s      0.000w     90 calls
| JK: JK                    :      1.750u      0.000s      1.043w     90 calls
| | JK: J                   :      0.017u      0.000s      0.004w     66 calls
| | | JK: J1                :      0.000u      0.000s      0.002w    132 calls
| | | JK: J2                :      0.017u      0.000s      0.002w    132 calls
| | JK: K                   :      0.067u      0.000s      0.040w     66 calls
| | | JK: K1                :      0.067u      0.000s      0.033w    132 calls
| | | JK: K2                :      0.000u      0.000s      0.006w    132 calls
| JK: AO2USO                :      0.000u      0.000s      0.000w     90 calls
HF: Form F                  :      0.000u      0.000s      0.002w     90 calls
HF: DIIS                    :      0.033u      0.000s      0.007w     90 calls
| DIISManager::add_entry    :      0.000u      0.000s      0.002w     33 calls
| DIISManager::extrapolate  :      0.000u      0.000s      0.002w     30 calls
| | bMatrix setup           :      0.000u      0.000s      0.001w     30 calls
| | bMatrix pseudoinverse   :      0.000u      0.000s      0.001w     30 calls
| | New vector              :      0.000u      0.000s      0.001w     30 calls
HF: Form C                  :      0.000u      0.000s      0.009w     90 calls
HF: Form D                  :      0.000u      0.000s      0.001w     90 calls

***********************************************************

Host: shannon-book.local

Timers On : Fri Jan 18 11:23:11 2019
Timers Off: Fri Jan 18 11:23:15 2019

Wall Time:        4.56 seconds

JK: (A|mn)                  :      0.100u      0.000s      0.057w      4 calls
JK: (A|Q)^-1/2              :      0.067u      0.000s      0.046w      4 calls
JK: (Q|mn)                  :      0.017u      0.000s      0.001w      4 calls
HF: Form H                  :      0.000u      0.017s      0.012w      4 calls
HF: Form S/X                :      0.000u      0.000s      0.001w      4 calls
HF: Guess                   :      0.000u      0.000s      0.001w      4 calls
HF: Form G                  :      2.317u      0.000s      1.401w    120 calls
JK: D                       :      0.000u      0.000s      0.001w    120 calls
JK: USO2AO                  :      0.000u      0.000s      0.000w    120 calls
JK: JK                      :      2.300u      0.000s      1.397w    120 calls
JK: J                       :      0.000u      0.000s      0.006w     88 calls
JK: J1                      :      0.000u      0.000s      0.003w    176 calls
JK: J2                      :      0.000u      0.000s      0.003w    176 calls
JK: K                       :      0.100u      0.000s      0.056w     88 calls
JK: K1                      :      0.083u      0.000s      0.047w    176 calls
JK: K2                      :      0.017u      0.000s      0.008w    176 calls
JK: AO2USO                  :      0.000u      0.000s      0.000w    120 calls
HF: Form F                  :      0.017u      0.000s      0.003w    120 calls
HF: DIIS                    :      0.000u      0.000s      0.009w    120 calls
DIISManager::add_entry      :      0.000u      0.000s      0.003w     44 calls
DIISManager::extrapolate    :      0.000u      0.000s      0.003w     40 calls
bMatrix setup               :      0.000u      0.000s      0.001w     40 calls
bMatrix pseudoinverse       :      0.000u      0.000s      0.001w     40 calls
New vector                  :      0.000u      0.000s      0.001w     40 calls
HF: Form C                  :      0.033u      0.000s      0.013w    120 calls
HF: Form D                  :      0.000u      0.000s      0.001w    120 calls

-----------------------------------------------------------
JK: (A|mn)                  :      0.100u      0.000s      0.057w      4 calls
JK: (A|Q)^-1/2              :      0.067u      0.000s      0.046w      4 calls
JK: (Q|mn)                  :      0.017u      0.000s      0.001w      4 calls
HF: Form H                  :      0.000u      0.017s      0.012w      4 calls
HF: Form S/X                :      0.000u      0.000s      0.001w      4 calls
HF: Guess                   :      0.000u      0.000s      0.001w      4 calls
HF: Form G                  :      2.317u      0.000s      1.401w    120 calls
| JK: D                     :      0.000u      0.000s      0.001w    120 calls
| JK: USO2AO                :      0.000u      0.000s      0.000w    120 calls
| JK: JK                    :      2.300u      0.000s      1.397w    120 calls
| | JK: J                   :      0.000u      0.000s      0.006w     88 calls
| | | JK: J1                :      0.000u      0.000s      0.003w    176 calls
| | | JK: J2                :      0.000u      0.000s      0.003w    176 calls
| | JK: K                   :      0.100u      0.000s      0.056w     88 calls
| | | JK: K1                :      0.083u      0.000s      0.047w    176 calls
| | | JK: K2                :      0.017u      0.000s      0.008w    176 calls
| JK: AO2USO                :      0.000u      0.000s      0.000w    120 calls
HF: Form F                  :      0.017u      0.000s      0.003w    120 calls
HF: DIIS                    :      0.000u      0.000s      0.009w    120 calls
| DIISManager::add_entry    :      0.000u      0.000s      0.003w     44 calls
| DIISManager::extrapolate  :      0.000u      0.000s      0.003w     40 calls
| | bMatrix setup           :      0.000u      0.000s      0.001w     40 calls
| | bMatrix pseudoinverse   :      0.000u      0.000s      0.001w     40 calls
| | New vector              :      0.000u      0.000s      0.001w     40 calls
HF: Form C                  :      0.033u      0.000s      0.013w    120 calls
HF: Form D                  :      0.000u      0.000s      0.001w    120 calls

***********************************************************

Host: shannon-book.local

Timers On : Fri Jan 18 11:24:05 2019
Timers Off: Fri Jan 18 11:24:10 2019

Wall Time:        4.63 seconds

JK: (A|mn)                  :      0.100u      0.000s      0.058w      4 calls
JK: (A|Q)^-1/2              :      0.067u      0.000s      0.047w      4 calls
JK: (Q|mn)                  :      0.000u      0.000s      0.001w      4 calls
HF: Form H                  :      0.000u      0.000s      0.013w      4 calls
HF: Form S/X                :      0.000u      0.000s      0.001w      4 calls
HF: Guess                   :      0.000u      0.000s      0.001w      4 calls
HF: Form G                  :      2.317u      0.033s      1.425w    120 calls
JK: D                       :      0.000u      0.000s      0.001w    120 calls
JK: USO2AO                  :      0.017u      0.000s      0.000w    120 calls
JK: JK                      :      2.300u      0.017s      1.421w    120 calls
JK: J                       :      0.033u      0.000s      0.006w     88 calls
JK: J1                      :      0.000u      0.000s      0.003w    176 calls
JK: J2                      :      0.033u      0.000s      0.003w    176 calls
JK: K                       :      0.050u      0.017s      0.057w     88 calls
JK: K1                      :      0.050u      0.000s      0.048w    176 calls
JK: K2                      :      0.000u      0.017s      0.009w    176 calls
JK: AO2USO                  :      0.000u      0.000s      0.000w    120 calls
HF: Form F                  :      0.017u      0.000s      0.004w    120 calls
HF: DIIS                    :      0.033u      0.000s      0.009w    120 calls
DIISManager::add_entry      :      0.000u      0.000s      0.003w     44 calls
DIISManager::extrapolate    :      0.000u      0.000s      0.003w     40 calls
bMatrix setup               :      0.000u      0.000s      0.001w     40 calls
bMatrix pseudoinverse       :      0.000u      0.000s      0.001w     40 calls
New vector                  :      0.000u      0.000s      0.001w     40 calls
HF: Form C                  :      0.033u      0.000s      0.013w    120 calls
HF: Form D                  :      0.000u      0.000s      0.001w    120 calls

-----------------------------------------------------------
JK: (A|mn)                  :      0.100u      0.000s      0.058w      4 calls
JK: (A|Q)^-1/2              :      0.067u      0.000s      0.047w      4 calls
JK: (Q|mn)                  :      0.000u      0.000s      0.001w      4 calls
HF: Form H                  :      0.000u      0.000s      0.013w      4 calls
HF: Form S/X                :      0.000u      0.000s      0.001w      4 calls
HF: Guess                   :      0.000u      0.000s      0.001w      4 calls
HF: Form G                  :      2.317u      0.033s      1.425w    120 calls
| JK: D                     :      0.000u      0.000s      0.001w    120 calls
| JK: USO2AO                :      0.017u      0.000s      0.000w    120 calls
| JK: JK                    :      2.300u      0.017s      1.421w    120 calls
| | JK: J                   :      0.033u      0.000s      0.006w     88 calls
| | | JK: J1                :      0.000u      0.000s      0.003w    176 calls
| | | JK: J2                :      0.033u      0.000s      0.003w    176 calls
| | JK: K                   :      0.050u      0.017s      0.057w     88 calls
| | | JK: K1                :      0.050u      0.000s      0.048w    176 calls
| | | JK: K2                :      0.000u      0.017s      0.009w    176 calls
| JK: AO2USO                :      0.000u      0.000s      0.000w    120 calls
HF: Form F                  :      0.017u      0.000s      0.004w    120 calls
HF: DIIS                    :      0.033u      0.000s      0.009w    120 calls
| DIISManager::add_entry    :      0.000u      0.000s      0.003w     44 calls
| DIISManager::extrapolate  :      0.000u      0.000s      0.003w     40 calls
| | bMatrix setup           :      0.000u      0.000s      0.001w     40 calls
| | bMatrix pseudoinverse   :      0.000u      0.000s      0.001w     40 calls
| | New vector              :      0.000u      0.000s      0.001w     40 calls
HF: Form C                  :      0.033u      0.000s      0.013w    120 calls
HF: Form D                  :      0.000u      0.000s      0.001w    120 calls

***********************************************************

Host: shannon-book.local

Timers On : Fri Jan 18 11:26:16 2019
Timers Off: Fri Jan 18 11:26:22 2019

Wall Time:        5.67 seconds

JK: (A|mn)                  :      0.100u      0.000s      0.057w      4 calls
JK: (A|Q)^-1/2              :      0.067u      0.000s      0.047w      4 calls
JK: (Q|mn)                  :      0.000u      0.000s      0.001w      4 calls
HF: Form H                  :      0.000u      0.000s      0.012w      4 calls
HF: Form S/X                :      0.000u      0.000s      0.001w      4 calls
HF: Guess                   :      0.000u      0.000s      0.001w      4 calls
HF: Form G                  :      2.300u      0.000s      1.405w    120 calls
JK: D                       :      0.000u      0.000s      0.001w    120 calls
JK: USO2AO                  :      0.000u      0.000s      0.000w    120 calls
JK: JK                      :      2.300u      0.000s      1.402w    120 calls
JK: J                       :      0.000u      0.000s      0.006w     88 calls
JK: J1                      :      0.000u      0.000s      0.003w    176 calls
JK: J2                      :      0.000u      0.000s      0.003w    176 calls
JK: K                       :      0.083u      0.000s      0.057w     88 calls
JK: K1                      :      0.050u      0.000s      0.047w    176 calls
JK: K2                      :      0.033u      0.000s      0.009w    176 calls
JK: AO2USO                  :      0.000u      0.000s      0.000w    120 calls
HF: Form F                  :      0.000u      0.000s      0.003w    120 calls
HF: DIIS                    :      0.017u      0.000s      0.009w    120 calls
DIISManager::add_entry      :      0.017u      0.000s      0.003w     44 calls
DIISManager::extrapolate    :      0.000u      0.000s      0.003w     40 calls
bMatrix setup               :      0.000u      0.000s      0.001w     40 calls
bMatrix pseudoinverse       :      0.000u      0.000s      0.001w     40 calls
New vector                  :      0.000u      0.000s      0.001w     40 calls
HF: Form C                  :      0.050u      0.000s      0.013w    120 calls
HF: Form D                  :      0.000u      0.000s      0.001w    120 calls

-----------------------------------------------------------
JK: (A|mn)                  :      0.100u      0.000s      0.057w      4 calls
JK: (A|Q)^-1/2              :      0.067u      0.000s      0.047w      4 calls
JK: (Q|mn)                  :      0.000u      0.000s      0.001w      4 calls
HF: Form H                  :      0.000u      0.000s      0.012w      4 calls
HF: Form S/X                :      0.000u      0.000s      0.001w      4 calls
HF: Guess                   :      0.000u      0.000s      0.001w      4 calls
HF: Form G                  :      2.300u      0.000s      1.405w    120 calls
| JK: D                     :      0.000u      0.000s      0.001w    120 calls
| JK: USO2AO                :      0.000u      0.000s      0.000w    120 calls
| JK: JK                    :      2.300u      0.000s      1.402w    120 calls
| | JK: J                   :      0.000u      0.000s      0.006w     88 calls
| | | JK: J1                :      0.000u      0.000s      0.003w    176 calls
| | | JK: J2                :      0.000u      0.000s      0.003w    176 calls
| | JK: K                   :      0.083u      0.000s      0.057w     88 calls
| | | JK: K1                :      0.050u      0.000s      0.047w    176 calls
| | | JK: K2                :      0.033u      0.000s      0.009w    176 calls
| JK: AO2USO                :      0.000u      0.000s      0.000w    120 calls
HF: Form F                  :      0.000u      0.000s      0.003w    120 calls
HF: DIIS                    :      0.017u      0.000s      0.009w    120 calls
| DIISManager::add_entry    :      0.017u      0.000s      0.003w     44 calls
| DIISManager::extrapolate  :      0.000u      0.000s      0.003w     40 calls
| | bMatrix setup           :      0.000u      0.000s      0.001w     40 calls
| | bMatrix pseudoinverse   :      0.000u      0.000s      0.001w     40 calls
| | New vector              :      0.000u      0.000s      0.001w     40 calls
HF: Form C                  :      0.050u      0.000s      0.013w    120 calls
HF: Form D                  :      0.000u      0.000s      0.001w    120 calls

***********************************************************

Host: shannon-book.local

Timers On : Fri Jan 18 11:27:08 2019
Timers Off: Fri Jan 18 11:27:16 2019

Wall Time:        7.38 seconds

JK: (A|mn)                  :      0.150u      0.000s      0.087w      6 calls
JK: (A|Q)^-1/2              :      0.117u      0.000s      0.070w      6 calls
JK: (Q|mn)                  :      0.000u      0.000s      0.002w      6 calls
HF: Form H                  :      0.017u      0.017s      0.018w      6 calls
HF: Form S/X                :      0.000u      0.000s      0.001w      6 calls
HF: Guess                   :      0.000u      0.000s      0.001w      6 calls
HF: Form G                  :      3.483u      0.000s      2.121w    180 calls
JK: D                       :      0.000u      0.000s      0.001w    180 calls
JK: USO2AO                  :      0.000u      0.000s      0.001w    180 calls
JK: JK                      :      3.483u      0.000s      2.116w    180 calls
JK: J                       :      0.000u      0.000s      0.009w    132 calls
JK: J1                      :      0.000u      0.000s      0.004w    264 calls
JK: J2                      :      0.000u      0.000s      0.004w    264 calls
JK: K                       :      0.083u      0.000s      0.083w    132 calls
JK: K1                      :      0.033u      0.000s      0.070w    264 calls
JK: K2                      :      0.050u      0.000s      0.013w    264 calls
JK: AO2USO                  :      0.000u      0.000s      0.000w    180 calls
HF: Form F                  :      0.000u      0.000s      0.005w    180 calls
HF: DIIS                    :      0.017u      0.000s      0.013w    180 calls
DIISManager::add_entry      :      0.017u      0.000s      0.005w     66 calls
DIISManager::extrapolate    :      0.000u      0.000s      0.004w     60 calls
bMatrix setup               :      0.000u      0.000s      0.001w     60 calls
bMatrix pseudoinverse       :      0.000u      0.000s      0.001w     60 calls
New vector                  :      0.000u      0.000s      0.001w     60 calls
HF: Form C                  :      0.050u      0.017s      0.019w    180 calls
HF: Form D                  :      0.000u      0.000s      0.001w    180 calls

-----------------------------------------------------------
JK: (A|mn)                  :      0.150u      0.000s      0.087w      6 calls
JK: (A|Q)^-1/2              :      0.117u      0.000s      0.070w      6 calls
JK: (Q|mn)                  :      0.000u      0.000s      0.002w      6 calls
HF: Form H                  :      0.017u      0.017s      0.018w      6 calls
HF: Form S/X                :      0.000u      0.000s      0.001w      6 calls
HF: Guess                   :      0.000u      0.000s      0.001w      6 calls
HF: Form G                  :      3.483u      0.000s      2.121w    180 calls
| JK: D                     :      0.000u      0.000s      0.001w    180 calls
| JK: USO2AO                :      0.000u      0.000s      0.001w    180 calls
| JK: JK                    :      3.483u      0.000s      2.116w    180 calls
| | JK: J                   :      0.000u      0.000s      0.009w    132 calls
| | | JK: J1                :      0.000u      0.000s      0.004w    264 calls
| | | JK: J2                :      0.000u      0.000s      0.004w    264 calls
| | JK: K                   :      0.083u      0.000s      0.083w    132 calls
| | | JK: K1                :      0.033u      0.000s      0.070w    264 calls
| | | JK: K2                :      0.050u      0.000s      0.013w    264 calls
| JK: AO2USO                :      0.000u      0.000s      0.000w    180 calls
HF: Form F                  :      0.000u      0.000s      0.005w    180 calls
HF: DIIS                    :      0.017u      0.000s      0.013w    180 calls
| DIISManager::add_entry    :      0.017u      0.000s      0.005w     66 calls
| DIISManager::extrapolate  :      0.000u      0.000s      0.004w     60 calls
| | bMatrix setup           :      0.000u      0.000s      0.001w     60 calls
| | bMatrix pseudoinverse   :      0.000u      0.000s      0.001w     60 calls
| | New vector              :      0.000u      0.000s      0.001w     60 calls
HF: Form C                  :      0.050u      0.017s      0.019w    180 calls
HF: Form D                  :      0.000u      0.000s      0.001w    180 calls

***********************************************************

Host: shannon-book.local

Timers On : Fri Jan 18 11:31:31 2019
Timers Off: Fri Jan 18 11:31:40 2019

Wall Time:        8.59 seconds

JK: (A|mn)                  :      0.167u      0.017s      0.126w      5 calls
JK: (A|Q)^-1/2              :      0.083u      0.000s      0.065w      5 calls
JK: (Q|mn)                  :      0.000u      0.000s      0.003w      5 calls
HF: Form H                  :      0.000u      0.017s      0.043w      5 calls
HF: Form S/X                :      0.017u      0.000s      0.002w      5 calls
HF: Guess                   :      0.000u      0.000s      0.001w      5 calls
HF: Form G                  :      3.600u      0.100s      2.623w    150 calls
JK: D                       :      0.000u      0.000s      0.001w    150 calls
JK: USO2AO                  :      0.000u      0.000s      0.001w    150 calls
JK: JK                      :      3.600u      0.100s      2.616w    150 calls
JK: J                       :      0.067u      0.000s      0.016w    110 calls
JK: J1                      :      0.050u      0.000s      0.009w    220 calls
JK: J2                      :      0.017u      0.000s      0.006w    220 calls
JK: K                       :      0.117u      0.000s      0.098w    110 calls
JK: K1                      :      0.117u      0.000s      0.080w    220 calls
JK: K2                      :      0.000u      0.000s      0.017w    220 calls
JK: AO2USO                  :      0.000u      0.000s      0.000w    150 calls
HF: Form F                  :      0.033u      0.000s      0.008w    150 calls
HF: DIIS                    :      0.000u      0.033s      0.019w    150 calls
DIISManager::add_entry      :      0.000u      0.033s      0.007w     55 calls
DIISManager::extrapolate    :      0.000u      0.000s      0.007w     50 calls
bMatrix setup               :      0.000u      0.000s      0.003w     50 calls
bMatrix pseudoinverse       :      0.000u      0.000s      0.002w     50 calls
New vector                  :      0.000u      0.000s      0.002w     50 calls
HF: Form C                  :      0.033u      0.000s      0.020w    150 calls
HF: Form D                  :      0.000u      0.000s      0.002w    150 calls

-----------------------------------------------------------
JK: (A|mn)                  :      0.167u      0.017s      0.126w      5 calls
JK: (A|Q)^-1/2              :      0.083u      0.000s      0.065w      5 calls
JK: (Q|mn)                  :      0.000u      0.000s      0.003w      5 calls
HF: Form H                  :      0.000u      0.017s      0.043w      5 calls
HF: Form S/X                :      0.017u      0.000s      0.002w      5 calls
HF: Guess                   :      0.000u      0.000s      0.001w      5 calls
HF: Form G                  :      3.600u      0.100s      2.623w    150 calls
| JK: D                     :      0.000u      0.000s      0.001w    150 calls
| JK: USO2AO                :      0.000u      0.000s      0.001w    150 calls
| JK: JK                    :      3.600u      0.100s      2.616w    150 calls
| | JK: J                   :      0.067u      0.000s      0.016w    110 calls
| | | JK: J1                :      0.050u      0.000s      0.009w    220 calls
| | | JK: J2                :      0.017u      0.000s      0.006w    220 calls
| | JK: K                   :      0.117u      0.000s      0.098w    110 calls
| | | JK: K1                :      0.117u      0.000s      0.080w    220 calls
| | | JK: K2                :      0.000u      0.000s      0.017w    220 calls
| JK: AO2USO                :      0.000u      0.000s      0.000w    150 calls
HF: Form F                  :      0.033u      0.000s      0.008w    150 calls
HF: DIIS                    :      0.000u      0.033s      0.019w    150 calls
| DIISManager::add_entry    :      0.000u      0.033s      0.007w     55 calls
| DIISManager::extrapolate  :      0.000u      0.000s      0.007w     50 calls
| | bMatrix setup           :      0.000u      0.000s      0.003w     50 calls
| | bMatrix pseudoinverse   :      0.000u      0.000s      0.002w     50 calls
| | New vector              :      0.000u      0.000s      0.002w     50 calls
HF: Form C                  :      0.033u      0.000s      0.020w    150 calls
HF: Form D                  :      0.000u      0.000s      0.002w    150 calls

***********************************************************

Host: shannon-book.local

Timers On : Fri Jan 18 13:16:36 2019
Timers Off: Fri Jan 18 13:16:42 2019

Wall Time:        5.73 seconds

JK: (A|mn)                  :      0.133u      0.000s      0.073w      5 calls
JK: (A|Q)^-1/2              :      0.100u      0.000s      0.060w      5 calls
JK: (Q|mn)                  :      0.000u      0.000s      0.006w      5 calls
HF: Form H                  :      0.000u      0.017s      0.023w      5 calls
HF: Form S/X                :      0.000u      0.000s      0.002w      5 calls
HF: Guess                   :      0.017u      0.000s      0.001w      5 calls
HF: Form G                  :      2.983u      0.017s      1.777w    150 calls
JK: D                       :      0.000u      0.000s      0.001w    150 calls
JK: USO2AO                  :      0.000u      0.000s      0.001w    150 calls
JK: JK                      :      2.983u      0.000s      1.773w    150 calls
JK: J                       :      0.033u      0.000s      0.008w    110 calls
JK: J1                      :      0.033u      0.000s      0.004w    220 calls
JK: J2                      :      0.000u      0.000s      0.004w    220 calls
JK: K                       :      0.100u      0.000s      0.070w    110 calls
JK: K1                      :      0.083u      0.000s      0.059w    220 calls
JK: K2                      :      0.017u      0.000s      0.011w    220 calls
JK: AO2USO                  :      0.000u      0.000s      0.000w    150 calls
HF: Form F                  :      0.000u      0.000s      0.004w    150 calls
HF: DIIS                    :      0.000u      0.000s      0.011w    150 calls
DIISManager::add_entry      :      0.000u      0.000s      0.004w     55 calls
DIISManager::extrapolate    :      0.000u      0.000s      0.003w     50 calls
bMatrix setup               :      0.000u      0.000s      0.001w     50 calls
bMatrix pseudoinverse       :      0.000u      0.000s      0.001w     50 calls
New vector                  :      0.000u      0.000s      0.001w     50 calls
HF: Form C                  :      0.017u      0.000s      0.017w    150 calls
HF: Form D                  :      0.000u      0.000s      0.001w    150 calls

-----------------------------------------------------------
JK: (A|mn)                  :      0.133u      0.000s      0.073w      5 calls
JK: (A|Q)^-1/2              :      0.100u      0.000s      0.060w      5 calls
JK: (Q|mn)                  :      0.000u      0.000s      0.006w      5 calls
HF: Form H                  :      0.000u      0.017s      0.023w      5 calls
HF: Form S/X                :      0.000u      0.000s      0.002w      5 calls
HF: Guess                   :      0.017u      0.000s      0.001w      5 calls
HF: Form G                  :      2.983u      0.017s      1.777w    150 calls
| JK: D                     :      0.000u      0.000s      0.001w    150 calls
| JK: USO2AO                :      0.000u      0.000s      0.001w    150 calls
| JK: JK                    :      2.983u      0.000s      1.773w    150 calls
| | JK: J                   :      0.033u      0.000s      0.008w    110 calls
| | | JK: J1                :      0.033u      0.000s      0.004w    220 calls
| | | JK: J2                :      0.000u      0.000s      0.004w    220 calls
| | JK: K                   :      0.100u      0.000s      0.070w    110 calls
| | | JK: K1                :      0.083u      0.000s      0.059w    220 calls
| | | JK: K2                :      0.017u      0.000s      0.011w    220 calls
| JK: AO2USO                :      0.000u      0.000s      0.000w    150 calls
HF: Form F                  :      0.000u      0.000s      0.004w    150 calls
HF: DIIS                    :      0.000u      0.000s      0.011w    150 calls
| DIISManager::add_entry    :      0.000u      0.000s      0.004w     55 calls
| DIISManager::extrapolate  :      0.000u      0.000s      0.003w     50 calls
| | bMatrix setup           :      0.000u      0.000s      0.001w     50 calls
| | bMatrix pseudoinverse   :      0.000u      0.000s      0.001w     50 calls
| | New vector              :      0.000u      0.000s      0.001w     50 calls
HF: Form C                  :      0.017u      0.000s      0.017w    150 calls
HF: Form D                  :      0.000u      0.000s      0.001w    150 calls

***********************************************************

Host: shannon-book.local

Timers On : Fri Jan 18 13:21:03 2019
Timers Off: Fri Jan 18 13:21:09 2019

Wall Time:        5.50 seconds

JK: (A|mn)                  :      0.133u      0.000s      0.073w      5 calls
JK: (A|Q)^-1/2              :      0.100u      0.000s      0.058w      5 calls
JK: (Q|mn)                  :      0.000u      0.000s      0.002w      5 calls
HF: Form H                  :      0.000u      0.017s      0.024w      5 calls
HF: Form S/X                :      0.000u      0.000s      0.002w      5 calls
HF: Guess                   :      0.000u      0.000s      0.001w      5 calls
HF: Form G                  :      2.917u      0.017s      1.757w    150 calls
JK: D                       :      0.000u      0.000s      0.001w    150 calls
JK: USO2AO                  :      0.000u      0.000s      0.001w    150 calls
JK: JK                      :      2.917u      0.017s      1.753w    150 calls
JK: J                       :      0.017u      0.000s      0.008w    110 calls
JK: J1                      :      0.000u      0.000s      0.003w    220 calls
JK: J2                      :      0.017u      0.000s      0.003w    220 calls
JK: K                       :      0.117u      0.000s      0.069w    110 calls
JK: K1                      :      0.100u      0.000s      0.058w    220 calls
JK: K2                      :      0.017u      0.000s      0.011w    220 calls
[...]
DFH: compute_JK()           :      0.150u      0.000s      0.080w    330 calls
DFH: Grabbing AOs           :      0.000u      0.000s      0.000w    330 calls
DFH: compute_J              :      0.017u      0.000s      0.023w    330 calls
DFH: compute_K              :      0.133u      0.000s      0.054w    330 calls
JK: AO2USO                  :      0.000u      0.000s      0.000w    450 calls
HF: Form F                  :      0.000u      0.000s      0.008w    450 calls
HF: DIIS                    :      0.017u      0.000s      0.018w    450 calls
DIISManager::add_entry      :      0.000u      0.000s      0.005w    165 calls
DIISManager::extrapolate    :      0.000u      0.000s      0.007w    150 calls
bMatrix setup               :      0.000u      0.000s      0.002w    150 calls
bMatrix pseudoinverse       :      0.000u      0.000s      0.002w    150 calls
New vector                  :      0.000u      0.000s      0.002w    150 calls
HF: Form C                  :      0.017u      0.017s      0.026w    450 calls
HF: Form D                  :      0.000u      0.000s      0.002w    450 calls

-----------------------------------------------------------
DFH: initialize()           :      0.750u      0.017s      0.437w     15 calls
| DFH: sparsity prep        :      0.183u      0.000s      0.126w     15 calls
| DFH: AO Construction      :      0.133u      0.000s      0.072w     15 calls
| DFH: AO-Met. Contraction  :      0.017u      0.000s      0.008w     15 calls
HF: Form H                  :      0.000u      0.000s      0.011w     15 calls
HF: Form S/X                :      0.000u      0.000s      0.001w     15 calls
HF: Guess                   :      0.000u      0.000s      0.001w     15 calls
HF: Form G                  :      7.817u      0.017s      4.675w    450 calls
| JK: D                     :      0.000u      0.000s      0.002w    450 calls
| JK: USO2AO                :      0.000u      0.000s      0.001w    450 calls
| JK: JK                    :      7.817u      0.017s      4.667w    450 calls
| | DFH: compute_JK()       :      0.150u      0.000s      0.080w    330 calls
| | | DFH: Grabbing AOs     :      0.000u      0.000s      0.000w    330 calls
| | | DFH: compute_J        :      0.017u      0.000s      0.023w    330 calls
| | | DFH: compute_K        :      0.133u      0.000s      0.054w    330 calls
| JK: AO2USO                :      0.000u      0.000s      0.000w    450 calls
HF: Form F                  :      0.000u      0.000s      0.008w    450 calls
HF: DIIS                    :      0.017u      0.000s      0.018w    450 calls
| DIISManager::add_entry    :      0.000u      0.000s      0.005w    165 calls
| DIISManager::extrapolate  :      0.000u      0.000s      0.007w    150 calls
| | bMatrix setup           :      0.000u      0.000s      0.002w    150 calls
| | bMatrix pseudoinverse   :      0.000u      0.000s      0.002w    150 calls
| | New vector              :      0.000u      0.000s      0.002w    150 calls
HF: Form C                  :      0.017u      0.017s      0.026w    450 calls
HF: Form D                  :      0.000u      0.000s      0.002w    450 calls

***********************************************************

Host: Spektor

Timers On : Fri May  3 10:52:40 2019
Timers Off: Fri May  3 10:53:38 2019

Wall Time:       58.54 seconds

DFH: initialize()           :      0.717u      0.017s      0.437w     15 calls
DFH: sparsity prep          :      0.183u      0.017s      0.126w     15 calls
DFH: AO Construction        :      0.150u      0.000s      0.072w     15 calls
DFH: AO-Met. Contraction    :      0.017u      0.000s      0.008w     15 calls
HF: Form H                  :      0.000u      0.000s      0.011w     15 calls
HF: Form S/X                :      0.000u      0.000s      0.001w     15 calls
HF: Guess                   :      0.000u      0.000s      0.001w     15 calls
HF: Form G                  :      7.650u      0.050s      4.656w    450 calls
JK: D                       :      0.017u      0.000s      0.002w    450 calls
JK: USO2AO                  :      0.000u      0.000s      0.001w    450 calls
JK: JK                      :      7.633u      0.050s      4.648w    450 calls
DFH: compute_JK()           :      0.117u      0.033s      0.080w    330 calls
DFH: Grabbing AOs           :      0.000u      0.000s      0.000w    330 calls
DFH: compute_J              :      0.033u      0.017s      0.023w    330 calls
DFH: compute_K              :      0.083u      0.017s      0.054w    330 calls
JK: AO2USO                  :      0.000u      0.000s      0.000w    450 calls
HF: Form F                  :      0.017u      0.000s      0.008w    450 calls
HF: DIIS                    :      0.083u      0.000s      0.018w    450 calls
DIISManager::add_entry      :      0.067u      0.000s      0.005w    165 calls
DIISManager::extrapolate    :      0.017u      0.000s      0.007w    150 calls
bMatrix setup               :      0.000u      0.000s      0.002w    150 calls
bMatrix pseudoinverse       :      0.000u      0.000s      0.002w    150 calls
New vector                  :      0.017u      0.000s      0.002w    150 calls
HF: Form C                  :      0.017u      0.017s      0.026w    450 calls
HF: Form D                  :      0.000u      0.000s      0.002w    450 calls

-----------------------------------------------------------
DFH: initialize()           :      0.717u      0.017s      0.437w     15 calls
| DFH: sparsity prep        :      0.183u      0.017s      0.126w     15 calls
| DFH: AO Construction      :      0.150u      0.000s      0.072w     15 calls
| DFH: AO-Met. Contraction  :      0.017u      0.000s      0.008w     15 calls
HF: Form H                  :      0.000u      0.000s      0.011w     15 calls
HF: Form S/X                :      0.000u      0.000s      0.001w     15 calls
HF: Guess                   :      0.000u      0.000s      0.001w     15 calls
HF: Form G                  :      7.650u      0.050s      4.656w    450 calls
| JK: D                     :      0.017u      0.000s      0.002w    450 calls
| JK: USO2AO                :      0.000u      0.000s      0.001w    450 calls
| JK: JK                    :      7.633u      0.050s      4.648w    450 calls
| | DFH: compute_JK()       :      0.117u      0.033s      0.080w    330 calls
| | | DFH: Grabbing AOs     :      0.000u      0.000s      0.000w    330 calls
| | | DFH: compute_J        :      0.033u      0.017s      0.023w    330 calls
| | | DFH: compute_K        :      0.083u      0.017s      0.054w    330 calls
| JK: AO2USO                :      0.000u      0.000s      0.000w    450 calls
HF: Form F                  :      0.017u      0.000s      0.008w    450 calls
HF: DIIS                    :      0.083u      0.000s      0.018w    450 calls
| DIISManager::add_entry    :      0.067u      0.000s      0.005w    165 calls
| DIISManager::extrapolate  :      0.017u      0.000s      0.007w    150 calls
| | bMatrix setup           :      0.000u      0.000s      0.002w    150 calls
| | bMatrix pseudoinverse   :      0.000u      0.000s      0.002w    150 calls
| | New vector              :      0.017u      0.000s      0.002w    150 calls
HF: Form C                  :      0.017u      0.017s      0.026w    450 calls
HF: Form D                  :      0.000u      0.000s      0.002w    450 calls

***********************************************************

Host: Spektor

Timers On : Tue May  7 13:48:30 2019
Timers Off: Tue May  7 13:49:28 2019

Wall Time:       58.71 seconds

DFH: initialize()           :      0.700u      0.017s      0.438w     15 calls
DFH: sparsity prep          :      0.167u      0.017s      0.127w     15 calls
DFH: AO Construction        :      0.117u      0.000s      0.072w     15 calls
DFH: AO-Met. Contraction    :      0.000u      0.000s      0.008w     15 calls
HF: Form H                  :      0.000u      0.000s      0.013w     15 calls
HF: Form S/X                :      0.000u      0.000s      0.001w     15 calls
HF: Guess                   :      0.000u      0.000s      0.001w     15 calls
HF: Form G                  :      7.717u      0.017s      4.669w    450 calls
JK: D                       :      0.000u      0.000s      0.002w    450 calls
JK: USO2AO                  :      0.000u      0.000s      0.001w    450 calls
JK: JK                      :      7.717u      0.017s      4.661w    450 calls
DFH: compute_JK()           :      0.150u      0.017s      0.079w    330 calls
DFH: Grabbing AOs           :      0.017u      0.000s      0.000w    330 calls
DFH: compute_J              :      0.033u      0.000s      0.023w    330 calls
DFH: compute_K              :      0.100u      0.017s      0.054w    330 calls
JK: AO2USO                  :      0.000u      0.000s      0.000w    450 calls
HF: Form F                  :      0.000u      0.017s      0.008w    450 calls
HF: DIIS                    :      0.050u      0.000s      0.018w    450 calls
DIISManager::add_entry      :      0.050u      0.000s      0.005w    165 calls
DIISManager::extrapolate    :      0.000u      0.000s      0.007w    150 calls
bMatrix setup               :      0.000u      0.000s      0.002w    150 calls
bMatrix pseudoinverse       :      0.000u      0.000s      0.002w    150 calls
New vector                  :      0.000u      0.000s      0.002w    150 calls
HF: Form C                  :      0.067u      0.000s      0.026w    450 calls
HF: Form D                  :      0.000u      0.000s      0.002w    450 calls

-----------------------------------------------------------
DFH: initialize()           :      0.700u      0.017s      0.438w     15 calls
| DFH: sparsity prep        :      0.167u      0.017s      0.127w     15 calls
| DFH: AO Construction      :      0.117u      0.000s      0.072w     15 calls
| DFH: AO-Met. Contraction  :      0.000u      0.000s      0.008w     15 calls
HF: Form H                  :      0.000u      0.000s      0.013w     15 calls
HF: Form S/X                :      0.000u      0.000s      0.001w     15 calls
HF: Guess                   :      0.000u      0.000s      0.001w     15 calls
HF: Form G                  :      7.717u      0.017s      4.669w    450 calls
| JK: D                     :      0.000u      0.000s      0.002w    450 calls
| JK: USO2AO                :      0.000u      0.000s      0.001w    450 calls
| JK: JK                    :      7.717u      0.017s      4.661w    450 calls
| | DFH: compute_JK()       :      0.150u      0.017s      0.079w    330 calls
| | | DFH: Grabbing AOs     :      0.017u      0.000s      0.000w    330 calls
| | | DFH: compute_J        :      0.033u      0.000s      0.023w    330 calls
| | | DFH: compute_K        :      0.100u      0.017s      0.054w    330 calls
| JK: AO2USO                :      0.000u      0.000s      0.000w    450 calls
HF: Form F                  :      0.000u      0.017s      0.008w    450 calls
HF: DIIS                    :      0.050u      0.000s      0.018w    450 calls
| DIISManager::add_entry    :      0.050u      0.000s      0.005w    165 calls
| DIISManager::extrapolate  :      0.000u      0.000s      0.007w    150 calls
| | bMatrix setup           :      0.000u      0.000s      0.002w    150 calls
| | bMatrix pseudoinverse   :      0.000u      0.000s      0.002w    150 calls
| | New vector              :      0.000u      0.000s      0.002w    150 calls
HF: Form C                  :      0.067u      0.000s      0.026w    450 calls
HF: Form D                  :      0.000u      0.000s      0.002w    450 calls

***********************************************************

Host: Spektor

Timers On : Tue May  7 13:50:30 2019
Timers Off: Tue May  7 13:51:29 2019

Wall Time:       58.74 seconds

DFH: initialize()           :      0.717u      0.017s      0.437w     15 calls
DFH: sparsity prep          :      0.233u      0.000s      0.126w     15 calls
DFH: AO Construction        :      0.117u      0.000s      0.072w     15 calls
DFH: AO-Met. Contraction    :      0.017u      0.000s      0.008w     15 calls
HF: Form H                  :      0.000u      0.000s      0.012w     15 calls
HF: Form S/X                :      0.000u      0.000s      0.001w     15 calls
HF: Guess                   :      0.000u      0.000s      0.001w     15 calls
HF: Form G                  :      7.817u      0.050s      4.674w    450 calls
JK: D                       :      0.000u      0.000s      0.002w    450 calls
JK: USO2AO                  :      0.000u      0.000s      0.001w    450 calls
JK: JK                      :      7.800u      0.050s      4.666w    450 calls
DFH: compute_JK()           :      0.167u      0.000s      0.080w    330 calls
DFH: Grabbing AOs           :      0.000u      0.000s      0.000w    330 calls
DFH: compute_J              :      0.083u      0.000s      0.023w    330 calls
DFH: compute_K              :      0.083u      0.000s      0.054w    330 calls
JK: AO2USO                  :      0.000u      0.000s      0.000w    450 calls
HF: Form F                  :      0.017u      0.000s      0.008w    450 calls
HF: DIIS                    :      0.017u      0.000s      0.018w    450 calls
DIISManager::add_entry      :      0.000u      0.000s      0.005w    165 calls
DIISManager::extrapolate    :      0.000u      0.000s      0.007w    150 calls
bMatrix setup               :      0.000u      0.000s      0.002w    150 calls
bMatrix pseudoinverse       :      0.000u      0.000s      0.002w    150 calls
New vector                  :      0.000u      0.000s      0.002w    150 calls
HF: Form C                  :      0.033u      0.000s      0.026w    450 calls
HF: Form D                  :      0.000u      0.000s      0.002w    450 calls

-----------------------------------------------------------
DFH: initialize()           :      0.717u      0.017s      0.437w     15 calls
| DFH: sparsity prep        :      0.233u      0.000s      0.126w     15 calls
| DFH: AO Construction      :      0.117u      0.000s      0.072w     15 calls
| DFH: AO-Met. Contraction  :      0.017u      0.000s      0.008w     15 calls
HF: Form H                  :      0.000u      0.000s      0.012w     15 calls
HF: Form S/X                :      0.000u      0.000s      0.001w     15 calls
HF: Guess                   :      0.000u      0.000s      0.001w     15 calls
HF: Form G                  :      7.817u      0.050s      4.674w    450 calls
| JK: D                     :      0.000u      0.000s      0.002w    450 calls
| JK: USO2AO                :      0.000u      0.000s      0.001w    450 calls
| JK: JK                    :      7.800u      0.050s      4.666w    450 calls
| | DFH: compute_JK()       :      0.167u      0.000s      0.080w    330 calls
| | | DFH: Grabbing AOs     :      0.000u      0.000s      0.000w    330 calls
| | | DFH: compute_J        :      0.083u      0.000s      0.023w    330 calls
| | | DFH: compute_K        :      0.083u      0.000s      0.054w    330 calls
| JK: AO2USO                :      0.000u      0.000s      0.000w    450 calls
HF: Form F                  :      0.017u      0.000s      0.008w    450 calls
HF: DIIS                    :      0.017u      0.000s      0.018w    450 calls
| DIISManager::add_entry    :      0.000u      0.000s      0.005w    165 calls
| DIISManager::extrapolate  :      0.000u      0.000s      0.007w    150 calls
| | bMatrix setup           :      0.000u      0.000s      0.002w    150 calls
| | bMatrix pseudoinverse   :      0.000u      0.000s      0.002w    150 calls
| | New vector              :      0.000u      0.000s      0.002w    150 calls
HF: Form C                  :      0.033u      0.000s      0.026w    450 calls
HF: Form D                  :      0.000u      0.000s      0.002w    450 calls

***********************************************************

Host: Spektor

Timers On : Tue May  7 14:05:00 2019
Timers Off: Tue May  7 14:05:59 2019

Wall Time:       58.99 seconds

DFH: initialize()           :      0.767u      0.000s      0.460w     15 calls
DFH: sparsity prep          :      0.250u      0.000s      0.133w     15 calls
DFH: AO Construction        :      0.050u      0.000s      0.072w     15 calls
DFH: AO-Met. Contraction    :      0.000u      0.000s      0.008w     15 calls
HF: Form H                  :      0.000u      0.017s      0.012w     15 calls
HF: Form S/X                :      0.000u      0.000s      0.001w     15 calls
HF: Guess                   :      0.000u      0.000s      0.001w     15 calls
HF: Form G                  :      7.800u      0.033s      4.688w    450 calls
JK: D                       :      0.000u      0.000s      0.002w    450 calls
JK: USO2AO                  :      0.000u      0.000s      0.001w    450 calls
JK: JK                      :      7.800u      0.017s      4.680w    450 calls
DFH: compute_JK()           :      0.167u      0.017s      0.079w    330 calls
DFH: Grabbing AOs           :      0.000u      0.000s      0.000w    330 calls
DFH: compute_J              :      0.083u      0.017s      0.023w    330 calls
DFH: compute_K              :      0.083u      0.000s      0.054w    330 calls
JK: AO2USO                  :      0.000u      0.000s      0.000w    450 calls
HF: Form F                  :      0.000u      0.000s      0.008w    450 calls
HF: DIIS                    :      0.033u      0.017s      0.018w    450 calls
DIISManager::add_entry      :      0.000u      0.000s      0.005w    165 calls
DIISManager::extrapolate    :      0.033u      0.000s      0.007w    150 calls
bMatrix setup               :      0.017u      0.000s      0.002w    150 calls
bMatrix pseudoinverse       :      0.017u      0.000s      0.002w    150 calls
New vector                  :      0.000u      0.000s      0.002w    150 calls
HF: Form C                  :      0.117u      0.000s      0.026w    450 calls
HF: Form D                  :      0.000u      0.000s      0.002w    450 calls

-----------------------------------------------------------
DFH: initialize()           :      0.767u      0.000s      0.460w     15 calls
| DFH: sparsity prep        :      0.250u      0.000s      0.133w     15 calls
| DFH: AO Construction      :      0.050u      0.000s      0.072w     15 calls
| DFH: AO-Met. Contraction  :      0.000u      0.000s      0.008w     15 calls
HF: Form H                  :      0.000u      0.017s      0.012w     15 calls
HF: Form S/X                :      0.000u      0.000s      0.001w     15 calls
HF: Guess                   :      0.000u      0.000s      0.001w     15 calls
HF: Form G                  :      7.800u      0.033s      4.688w    450 calls
| JK: D                     :      0.000u      0.000s      0.002w    450 calls
| JK: USO2AO                :      0.000u      0.000s      0.001w    450 calls
| JK: JK                    :      7.800u      0.017s      4.680w    450 calls
| | DFH: compute_JK()       :      0.167u      0.017s      0.079w    330 calls
| | | DFH: Grabbing AOs     :      0.000u      0.000s      0.000w    330 calls
| | | DFH: compute_J        :      0.083u      0.017s      0.023w    330 calls
| | | DFH: compute_K        :      0.083u      0.000s      0.054w    330 calls
| JK: AO2USO                :      0.000u      0.000s      0.000w    450 calls
HF: Form F                  :      0.000u      0.000s      0.008w    450 calls
HF: DIIS                    :      0.033u      0.017s      0.018w    450 calls
| DIISManager::add_entry    :      0.000u      0.000s      0.005w    165 calls
| DIISManager::extrapolate  :      0.033u      0.000s      0.007w    150 calls
| | bMatrix setup           :      0.017u      0.000s      0.002w    150 calls
| | bMatrix pseudoinverse   :      0.017u      0.000s      0.002w    150 calls
| | New vector              :      0.000u      0.000s      0.002w    150 calls
HF: Form C                  :      0.117u      0.000s      0.026w    450 calls
HF: Form D                  :      0.000u      0.000s      0.002w    450 calls

***********************************************************
