
Host: shannon-book.local

Timers On : Tue Sep  4 15:41:23 2018
Timers Off: Tue Sep  4 15:41:25 2018

Wall Time:        1.90 seconds

JK: (A|mn)                  :      0.017u      0.000s      0.014w      1 calls
JK: (A|Q)^-1/2              :      0.033u      0.000s      0.012w      1 calls
JK: (Q|mn)                  :      0.000u      0.000s      0.000w      1 calls
HF: Form H                  :      0.000u      0.000s      0.004w      1 calls
HF: Form S/X                :      0.000u      0.000s      0.000w      1 calls
HF: Guess                   :      0.050u      0.000s      0.029w      1 calls
SAD Guess                   :      0.050u      0.000s      0.028w      1 calls
HF: Form G                  :      0.250u      0.000s      0.154w     32 calls
JK: D                       :      0.000u      0.000s      0.000w     32 calls
JK: USO2AO                  :      0.000u      0.000s      0.000w     32 calls
JK: JK                      :      0.250u      0.000s      0.153w     32 calls
JK: J                       :      0.000u      0.000s      0.002w     29 calls
JK: J1                      :      0.000u      0.000s      0.001w     58 calls
JK: J2                      :      0.000u      0.000s      0.001w     58 calls
JK: K                       :      0.033u      0.000s      0.018w     29 calls
JK: K1                      :      0.017u      0.000s      0.015w     57 calls
JK: K2                      :      0.017u      0.000s      0.003w     57 calls
JK: AO2USO                  :      0.000u      0.000s      0.000w     32 calls
HF: Form F                  :      0.000u      0.000s      0.001w     32 calls
HF: DIIS                    :      0.000u      0.000s      0.003w     32 calls
DIISManager::add_entry      :      0.000u      0.000s      0.001w     12 calls
DIISManager::extrapolate    :      0.000u      0.000s      0.001w     11 calls
bMatrix setup               :      0.000u      0.000s      0.000w     11 calls
bMatrix pseudoinverse       :      0.000u      0.000s      0.000w     11 calls
New vector                  :      0.000u      0.000s      0.000w     11 calls
HF: Form C                  :      0.017u      0.000s      0.004w     32 calls
HF: Form D                  :      0.000u      0.000s      0.000w     32 calls
CIWave: CIvect write        :      0.000u      0.000s      0.000w     77 calls
CIWave: CIvect read         :      0.000u      0.000s      0.001w    428 calls
CIWave: s2                  :      0.000u      0.000s      0.000w      8 calls
CIWave: s1                  :      0.000u      0.000s      0.000w      8 calls
CIWave: s3                  :      0.000u      0.000s      0.000w      8 calls
CIWave: s3_mt               :      0.000u      0.000s      0.000w    168 calls
CIWave: opdm                :      0.000u      0.000s      0.000w      2 calls

-----------------------------------------------------------
JK: (A|mn)                  :      0.017u      0.000s      0.014w      1 calls
JK: (A|Q)^-1/2              :      0.033u      0.000s      0.012w      1 calls
JK: (Q|mn)                  :      0.000u      0.000s      0.000w      1 calls
HF: Form H                  :      0.000u      0.000s      0.004w      1 calls
HF: Form S/X                :      0.000u      0.000s      0.000w      1 calls
HF: Guess                   :      0.050u      0.000s      0.029w      1 calls
| SAD Guess                 :      0.050u      0.000s      0.028w      1 calls
HF: Form G                  :      0.250u      0.000s      0.154w     32 calls
| JK: D                     :      0.000u      0.000s      0.000w     32 calls
| JK: USO2AO                :      0.000u      0.000s      0.000w     32 calls
| JK: JK                    :      0.250u      0.000s      0.153w     32 calls
| | JK: J                   :      0.000u      0.000s      0.002w     29 calls
| | | JK: J1                :      0.000u      0.000s      0.001w     58 calls
| | | JK: J2                :      0.000u      0.000s      0.001w     58 calls
| | JK: K                   :      0.033u      0.000s      0.018w     29 calls
| | | JK: K1                :      0.017u      0.000s      0.015w     57 calls
| | | JK: K2                :      0.017u      0.000s      0.003w     57 calls
| JK: AO2USO                :      0.000u      0.000s      0.000w     32 calls
HF: Form F                  :      0.000u      0.000s      0.001w     32 calls
HF: DIIS                    :      0.000u      0.000s      0.003w     32 calls
| DIISManager::add_entry    :      0.000u      0.000s      0.001w     12 calls
| DIISManager::extrapolate  :      0.000u      0.000s      0.001w     11 calls
| | bMatrix setup           :      0.000u      0.000s      0.000w     11 calls
| | bMatrix pseudoinverse   :      0.000u      0.000s      0.000w     11 calls
| | New vector              :      0.000u      0.000s      0.000w     11 calls
HF: Form C                  :      0.017u      0.000s      0.004w     32 calls
HF: Form D                  :      0.000u      0.000s      0.000w     32 calls
CIWave: CIvect write        :      0.000u      0.000s      0.000w     77 calls
CIWave: CIvect read         :      0.000u      0.000s      0.001w    414 calls
CIWave: s2                  :      0.000u      0.000s      0.000w      8 calls
CIWave: s1                  :      0.000u      0.000s      0.000w      8 calls
CIWave: s3                  :      0.000u      0.000s      0.000w      8 calls
| CIWave: s3_mt             :      0.000u      0.000s      0.000w    168 calls
CIWave: opdm                :      0.000u      0.000s      0.000w      2 calls
| CIWave: CIvect read       :      0.000u      0.000s      0.000w     14 calls

***********************************************************

Host: shannon-book.local

Timers On : Tue Sep  4 15:42:57 2018
Timers Off: Tue Sep  4 15:43:03 2018

Wall Time:        6.38 seconds

JK: (A|mn)                  :      0.050u      0.000s      0.032w      2 calls
JK: (A|Q)^-1/2              :      0.033u      0.000s      0.025w      2 calls
JK: (Q|mn)                  :      0.000u      0.000s      0.001w      2 calls
HF: Form H                  :      0.000u      0.017s      0.008w      2 calls
HF: Form S/X                :      0.000u      0.000s      0.001w      2 calls
HF: Guess                   :      0.117u      0.000s      0.062w      2 calls
SAD Guess                   :      0.100u      0.000s      0.058w      2 calls
HF: Form G                  :      0.467u      0.000s      0.303w     64 calls
JK: D                       :      0.000u      0.000s      0.000w     64 calls
JK: USO2AO                  :      0.000u      0.000s      0.000w     64 calls
JK: JK                      :      0.467u      0.000s      0.301w     64 calls
JK: J                       :      0.000u      0.000s      0.004w     58 calls
JK: J1                      :      0.000u      0.000s      0.002w    116 calls
JK: J2                      :      0.000u      0.000s      0.002w    116 calls
JK: K                       :      0.033u      0.000s      0.035w     58 calls
JK: K1                      :      0.033u      0.000s      0.030w    114 calls
JK: K2                      :      0.000u      0.000s      0.006w    114 calls
JK: AO2USO                  :      0.000u      0.000s      0.000w     64 calls
HF: Form F                  :      0.033u      0.000s      0.002w     64 calls
HF: DIIS                    :      0.000u      0.000s      0.004w     64 calls
DIISManager::add_entry      :      0.000u      0.000s      0.001w     24 calls
DIISManager::extrapolate    :      0.000u      0.000s      0.001w     22 calls
bMatrix setup               :      0.000u      0.000s      0.000w     22 calls
bMatrix pseudoinverse       :      0.000u      0.000s      0.000w     22 calls
New vector                  :      0.000u      0.000s      0.000w     22 calls
HF: Form C                  :      0.033u      0.000s      0.008w     64 calls
HF: Form D                  :      0.000u      0.000s      0.000w     64 calls
CIWave: CIvect write        :      0.000u      0.000s      0.000w     77 calls
CIWave: CIvect read         :      0.000u      0.000s      0.001w    428 calls
CIWave: s2                  :      0.000u      0.000s      0.000w      8 calls
CIWave: s1                  :      0.000u      0.000s      0.000w      8 calls
CIWave: s3                  :      0.000u      0.000s      0.000w      8 calls
CIWave: s3_mt               :      0.000u      0.000s      0.000w    168 calls
CIWave: opdm                :      0.000u      0.000s      0.000w      2 calls

-----------------------------------------------------------
JK: (A|mn)                  :      0.050u      0.000s      0.032w      2 calls
JK: (A|Q)^-1/2              :      0.033u      0.000s      0.025w      2 calls
JK: (Q|mn)                  :      0.000u      0.000s      0.001w      2 calls
HF: Form H                  :      0.000u      0.017s      0.008w      2 calls
HF: Form S/X                :      0.000u      0.000s      0.001w      2 calls
HF: Guess                   :      0.117u      0.000s      0.062w      2 calls
| SAD Guess                 :      0.100u      0.000s      0.058w      2 calls
HF: Form G                  :      0.467u      0.000s      0.303w     64 calls
| JK: D                     :      0.000u      0.000s      0.000w     64 calls
| JK: USO2AO                :      0.000u      0.000s      0.000w     64 calls
| JK: JK                    :      0.467u      0.000s      0.301w     64 calls
| | JK: J                   :      0.000u      0.000s      0.004w     58 calls
| | | JK: J1                :      0.000u      0.000s      0.002w    116 calls
| | | JK: J2                :      0.000u      0.000s      0.002w    116 calls
| | JK: K                   :      0.033u      0.000s      0.035w     58 calls
| | | JK: K1                :      0.033u      0.000s      0.030w    114 calls
| | | JK: K2                :      0.000u      0.000s      0.006w    114 calls
| JK: AO2USO                :      0.000u      0.000s      0.000w     64 calls
HF: Form F                  :      0.033u      0.000s      0.002w     64 calls
HF: DIIS                    :      0.000u      0.000s      0.004w     64 calls
| DIISManager::add_entry    :      0.000u      0.000s      0.001w     24 calls
| DIISManager::extrapolate  :      0.000u      0.000s      0.001w     22 calls
| | bMatrix setup           :      0.000u      0.000s      0.000w     22 calls
| | bMatrix pseudoinverse   :      0.000u      0.000s      0.000w     22 calls
| | New vector              :      0.000u      0.000s      0.000w     22 calls
HF: Form C                  :      0.033u      0.000s      0.008w     64 calls
HF: Form D                  :      0.000u      0.000s      0.000w     64 calls
CIWave: CIvect write        :      0.000u      0.000s      0.000w     77 calls
CIWave: CIvect read         :      0.000u      0.000s      0.001w    414 calls
CIWave: s2                  :      0.000u      0.000s      0.000w      8 calls
CIWave: s1                  :      0.000u      0.000s      0.000w      8 calls
CIWave: s3                  :      0.000u      0.000s      0.000w      8 calls
| CIWave: s3_mt             :      0.000u      0.000s      0.000w    168 calls
CIWave: opdm                :      0.000u      0.000s      0.000w      2 calls
| CIWave: CIvect read       :      0.000u      0.000s      0.000w     14 calls

***********************************************************

Host: shannon-book.local

Timers On : Tue Sep  4 15:49:11 2018
Timers Off: Tue Sep  4 15:49:12 2018

Wall Time:        1.08 seconds


-----------------------------------------------------------

***********************************************************

Host: shannon-book.local

Timers On : Tue Sep  4 15:49:16 2018
Timers Off: Tue Sep  4 15:49:22 2018

Wall Time:        6.41 seconds

JK: (A|mn)                  :      0.067u      0.000s      0.036w      2 calls
JK: (A|Q)^-1/2              :      0.033u      0.000s      0.025w      2 calls
JK: (Q|mn)                  :      0.000u      0.000s      0.001w      2 calls
HF: Form H                  :      0.000u      0.000s      0.008w      2 calls
HF: Form S/X                :      0.000u      0.000s      0.001w      2 calls
HF: Guess                   :      0.100u      0.000s      0.064w      2 calls
SAD Guess                   :      0.100u      0.000s      0.060w      2 calls
HF: Form G                  :      0.517u      0.017s      0.305w     64 calls
JK: D                       :      0.000u      0.000s      0.000w     64 calls
JK: USO2AO                  :      0.000u      0.000s      0.000w     64 calls
JK: JK                      :      0.517u      0.017s      0.303w     64 calls
JK: J                       :      0.017u      0.017s      0.004w     58 calls
JK: J1                      :      0.017u      0.000s      0.002w    116 calls
JK: J2                      :      0.000u      0.017s      0.002w    116 calls
JK: K                       :      0.083u      0.000s      0.035w     58 calls
JK: K1                      :      0.067u      0.000s      0.029w    114 calls
JK: K2                      :      0.017u      0.000s      0.005w    114 calls
JK: AO2USO                  :      0.000u      0.000s      0.000w     64 calls
HF: Form F                  :      0.000u      0.000s      0.002w     64 calls
HF: DIIS                    :      0.000u      0.000s      0.004w     64 calls
DIISManager::add_entry      :      0.000u      0.000s      0.002w     24 calls
DIISManager::extrapolate    :      0.000u      0.000s      0.001w     22 calls
bMatrix setup               :      0.000u      0.000s      0.000w     22 calls
bMatrix pseudoinverse       :      0.000u      0.000s      0.000w     22 calls
New vector                  :      0.000u      0.000s      0.000w     22 calls
HF: Form C                  :      0.000u      0.000s      0.007w     64 calls
HF: Form D                  :      0.000u      0.000s      0.000w     64 calls
CIWave: CIvect write        :      0.000u      0.000s      0.000w     77 calls
CIWave: CIvect read         :      0.000u      0.000s      0.001w    428 calls
CIWave: s2                  :      0.000u      0.000s      0.000w      8 calls
CIWave: s1                  :      0.000u      0.000s      0.000w      8 calls
CIWave: s3                  :      0.000u      0.017s      0.000w      8 calls
CIWave: s3_mt               :      0.000u      0.000s      0.000w    168 calls
CIWave: opdm                :      0.000u      0.000s      0.000w      2 calls

-----------------------------------------------------------
JK: (A|mn)                  :      0.067u      0.000s      0.036w      2 calls
JK: (A|Q)^-1/2              :      0.033u      0.000s      0.025w      2 calls
JK: (Q|mn)                  :      0.000u      0.000s      0.001w      2 calls
HF: Form H                  :      0.000u      0.000s      0.008w      2 calls
HF: Form S/X                :      0.000u      0.000s      0.001w      2 calls
HF: Guess                   :      0.100u      0.000s      0.064w      2 calls
| SAD Guess                 :      0.100u      0.000s      0.060w      2 calls
HF: Form G                  :      0.517u      0.017s      0.305w     64 calls
| JK: D                     :      0.000u      0.000s      0.000w     64 calls
| JK: USO2AO                :      0.000u      0.000s      0.000w     64 calls
| JK: JK                    :      0.517u      0.017s      0.303w     64 calls
| | JK: J                   :      0.017u      0.017s      0.004w     58 calls
| | | JK: J1                :      0.017u      0.000s      0.002w    116 calls
| | | JK: J2                :      0.000u      0.017s      0.002w    116 calls
| | JK: K                   :      0.083u      0.000s      0.035w     58 calls
| | | JK: K1                :      0.067u      0.000s      0.029w    114 calls
| | | JK: K2                :      0.017u      0.000s      0.005w    114 calls
| JK: AO2USO                :      0.000u      0.000s      0.000w     64 calls
HF: Form F                  :      0.000u      0.000s      0.002w     64 calls
HF: DIIS                    :      0.000u      0.000s      0.004w     64 calls
| DIISManager::add_entry    :      0.000u      0.000s      0.002w     24 calls
| DIISManager::extrapolate  :      0.000u      0.000s      0.001w     22 calls
| | bMatrix setup           :      0.000u      0.000s      0.000w     22 calls
| | bMatrix pseudoinverse   :      0.000u      0.000s      0.000w     22 calls
| | New vector              :      0.000u      0.000s      0.000w     22 calls
HF: Form C                  :      0.000u      0.000s      0.007w     64 calls
HF: Form D                  :      0.000u      0.000s      0.000w     64 calls
CIWave: CIvect write        :      0.000u      0.000s      0.000w     77 calls
CIWave: CIvect read         :      0.000u      0.000s      0.001w    414 calls
CIWave: s2                  :      0.000u      0.000s      0.000w      8 calls
CIWave: s1                  :      0.000u      0.000s      0.000w      8 calls
CIWave: s3                  :      0.000u      0.017s      0.000w      8 calls
| CIWave: s3_mt             :      0.000u      0.000s      0.000w    168 calls
CIWave: opdm                :      0.000u      0.000s      0.000w      2 calls
| CIWave: CIvect read       :      0.000u      0.000s      0.000w     14 calls

***********************************************************

Host: shannon-book.local

Timers On : Tue Sep  4 15:50:01 2018
Timers Off: Tue Sep  4 15:50:02 2018

Wall Time:        1.07 seconds


-----------------------------------------------------------

***********************************************************

Host: shannon-book.local

Timers On : Tue Sep  4 15:50:12 2018
Timers Off: Tue Sep  4 15:50:19 2018

Wall Time:        6.73 seconds

JK: (A|mn)                  :      0.050u      0.000s      0.033w      2 calls
JK: (A|Q)^-1/2              :      0.050u      0.000s      0.024w      2 calls
JK: (Q|mn)                  :      0.000u      0.000s      0.001w      2 calls
HF: Form H                  :      0.000u      0.000s      0.008w      2 calls
HF: Form S/X                :      0.000u      0.000s      0.000w      2 calls
HF: Guess                   :      0.100u      0.000s      0.061w      2 calls
SAD Guess                   :      0.100u      0.000s      0.058w      2 calls
HF: Form G                  :      1.233u      0.000s      0.731w     82 calls
JK: D                       :      0.000u      0.000s      0.000w     82 calls
JK: USO2AO                  :      0.000u      0.000s      0.000w     82 calls
JK: JK                      :      1.233u      0.000s      0.729w     82 calls
JK: J                       :      0.000u      0.000s      0.004w     66 calls
JK: J1                      :      0.000u      0.000s      0.002w    132 calls
JK: J2                      :      0.000u      0.000s      0.002w    132 calls
JK: K                       :      0.083u      0.000s      0.041w     66 calls
JK: K1                      :      0.050u      0.000s      0.034w    130 calls
JK: K2                      :      0.033u      0.000s      0.006w    130 calls
JK: AO2USO                  :      0.000u      0.000s      0.000w     82 calls
HF: Form F                  :      0.000u      0.000s      0.002w     82 calls
HF: DIIS                    :      0.000u      0.000s      0.007w     82 calls
DIISManager::add_entry      :      0.000u      0.000s      0.002w     42 calls
DIISManager::extrapolate    :      0.000u      0.000s      0.003w     40 calls
bMatrix setup               :      0.000u      0.000s      0.001w     40 calls
bMatrix pseudoinverse       :      0.000u      0.000s      0.001w     40 calls
New vector                  :      0.000u      0.000s      0.001w     40 calls
HF: Form C                  :      0.017u      0.000s      0.009w     82 calls
HF: Form D                  :      0.000u      0.000s      0.001w     82 calls
CIWave: CIvect write        :      0.000u      0.000s      0.000w     77 calls
CIWave: CIvect read         :      0.000u      0.000s      0.001w    428 calls
CIWave: s2                  :      0.000u      0.000s      0.000w      8 calls
CIWave: s1                  :      0.000u      0.000s      0.000w      8 calls
CIWave: s3                  :      0.000u      0.000s      0.000w      8 calls
CIWave: s3_mt               :      0.000u      0.000s      0.000w    168 calls
CIWave: opdm                :      0.000u      0.000s      0.000w      2 calls

-----------------------------------------------------------
JK: (A|mn)                  :      0.050u      0.000s      0.033w      2 calls
JK: (A|Q)^-1/2              :      0.050u      0.000s      0.024w      2 calls
JK: (Q|mn)                  :      0.000u      0.000s      0.001w      2 calls
HF: Form H                  :      0.000u      0.000s      0.008w      2 calls
HF: Form S/X                :      0.000u      0.000s      0.000w      2 calls
HF: Guess                   :      0.100u      0.000s      0.061w      2 calls
| SAD Guess                 :      0.100u      0.000s      0.058w      2 calls
HF: Form G                  :      1.233u      0.000s      0.731w     82 calls
| JK: D                     :      0.000u      0.000s      0.000w     82 calls
| JK: USO2AO                :      0.000u      0.000s      0.000w     82 calls
| JK: JK                    :      1.233u      0.000s      0.729w     82 calls
| | JK: J                   :      0.000u      0.000s      0.004w     66 calls
| | | JK: J1                :      0.000u      0.000s      0.002w    132 calls
| | | JK: J2                :      0.000u      0.000s      0.002w    132 calls
| | JK: K                   :      0.083u      0.000s      0.041w     66 calls
| | | JK: K1                :      0.050u      0.000s      0.034w    130 calls
| | | JK: K2                :      0.033u      0.000s      0.006w    130 calls
| JK: AO2USO                :      0.000u      0.000s      0.000w     82 calls
HF: Form F                  :      0.000u      0.000s      0.002w     82 calls
HF: DIIS                    :      0.000u      0.000s      0.007w     82 calls
| DIISManager::add_entry    :      0.000u      0.000s      0.002w     42 calls
| DIISManager::extrapolate  :      0.000u      0.000s      0.003w     40 calls
| | bMatrix setup           :      0.000u      0.000s      0.001w     40 calls
| | bMatrix pseudoinverse   :      0.000u      0.000s      0.001w     40 calls
| | New vector              :      0.000u      0.000s      0.001w     40 calls
HF: Form C                  :      0.017u      0.000s      0.009w     82 calls
HF: Form D                  :      0.000u      0.000s      0.001w     82 calls
CIWave: CIvect write        :      0.000u      0.000s      0.000w     77 calls
CIWave: CIvect read         :      0.000u      0.000s      0.001w    414 calls
CIWave: s2                  :      0.000u      0.000s      0.000w      8 calls
CIWave: s1                  :      0.000u      0.000s      0.000w      8 calls
CIWave: s3                  :      0.000u      0.000s      0.000w      8 calls
| CIWave: s3_mt             :      0.000u      0.000s      0.000w    168 calls
CIWave: opdm                :      0.000u      0.000s      0.000w      2 calls
| CIWave: CIvect read       :      0.000u      0.000s      0.000w     14 calls

***********************************************************

Host: shannon-book.local

Timers On : Tue Sep  4 15:53:07 2018
Timers Off: Tue Sep  4 15:53:15 2018

Wall Time:        7.88 seconds

JK: (A|mn)                  :      0.083u      0.000s      0.048w      3 calls
JK: (A|Q)^-1/2              :      0.067u      0.000s      0.037w      3 calls
JK: (Q|mn)                  :      0.000u      0.000s      0.001w      3 calls
HF: Form H                  :      0.000u      0.000s      0.012w      3 calls
HF: Form S/X                :      0.000u      0.000s      0.001w      3 calls
HF: Guess                   :      0.150u      0.017s      0.091w      3 calls
SAD Guess                   :      0.150u      0.017s      0.085w      3 calls
HF: Form G                  :      1.867u      0.017s      1.110w    124 calls
JK: D                       :      0.000u      0.000s      0.001w    124 calls
JK: USO2AO                  :      0.000u      0.000s      0.000w    124 calls
JK: JK                      :      1.867u      0.017s      1.107w    124 calls
JK: J                       :      0.033u      0.000s      0.007w    100 calls
JK: J1                      :      0.033u      0.000s      0.003w    200 calls
JK: J2                      :      0.000u      0.000s      0.003w    200 calls
JK: K                       :      0.100u      0.000s      0.061w    100 calls
JK: K1                      :      0.100u      0.000s      0.051w    197 calls
JK: K2                      :      0.000u      0.000s      0.009w    197 calls
JK: AO2USO                  :      0.000u      0.000s      0.000w    124 calls
HF: Form F                  :      0.017u      0.000s      0.003w    124 calls
HF: DIIS                    :      0.000u      0.000s      0.010w    124 calls
DIISManager::add_entry      :      0.000u      0.000s      0.003w     64 calls
DIISManager::extrapolate    :      0.000u      0.000s      0.005w     61 calls
bMatrix setup               :      0.000u      0.000s      0.002w     61 calls
bMatrix pseudoinverse       :      0.000u      0.000s      0.001w     61 calls
New vector                  :      0.000u      0.000s      0.001w     61 calls
HF: Form C                  :      0.000u      0.000s      0.014w    124 calls
HF: Form D                  :      0.000u      0.000s      0.001w    124 calls
CIWave: CIvect write        :      0.000u      0.000s      0.000w     81 calls
CIWave: CIvect read         :      0.000u      0.000s      0.001w    430 calls
CIWave: s2                  :      0.000u      0.000s      0.000w      8 calls
CIWave: s1                  :      0.000u      0.000s      0.000w      8 calls
CIWave: s3                  :      0.000u      0.000s      0.000w      8 calls
CIWave: s3_mt               :      0.000u      0.000s      0.000w    168 calls
CIWave: opdm                :      0.000u      0.000s      0.000w      2 calls

-----------------------------------------------------------
JK: (A|mn)                  :      0.083u      0.000s      0.048w      3 calls
JK: (A|Q)^-1/2              :      0.067u      0.000s      0.037w      3 calls
JK: (Q|mn)                  :      0.000u      0.000s      0.001w      3 calls
HF: Form H                  :      0.000u      0.000s      0.012w      3 calls
HF: Form S/X                :      0.000u      0.000s      0.001w      3 calls
HF: Guess                   :      0.150u      0.017s      0.091w      3 calls
| SAD Guess                 :      0.150u      0.017s      0.085w      3 calls
HF: Form G                  :      1.867u      0.017s      1.110w    124 calls
| JK: D                     :      0.000u      0.000s      0.001w    124 calls
| JK: USO2AO                :      0.000u      0.000s      0.000w    124 calls
| JK: JK                    :      1.867u      0.017s      1.107w    124 calls
| | JK: J                   :      0.033u      0.000s      0.007w    100 calls
| | | JK: J1                :      0.033u      0.000s      0.003w    200 calls
| | | JK: J2                :      0.000u      0.000s      0.003w    200 calls
| | JK: K                   :      0.100u      0.000s      0.061w    100 calls
| | | JK: K1                :      0.100u      0.000s      0.051w    197 calls
| | | JK: K2                :      0.000u      0.000s      0.009w    197 calls
| JK: AO2USO                :      0.000u      0.000s      0.000w    124 calls
HF: Form F                  :      0.017u      0.000s      0.003w    124 calls
HF: DIIS                    :      0.000u      0.000s      0.010w    124 calls
| DIISManager::add_entry    :      0.000u      0.000s      0.003w     64 calls
| DIISManager::extrapolate  :      0.000u      0.000s      0.005w     61 calls
| | bMatrix setup           :      0.000u      0.000s      0.002w     61 calls
| | bMatrix pseudoinverse   :      0.000u      0.000s      0.001w     61 calls
| | New vector              :      0.000u      0.000s      0.001w     61 calls
HF: Form C                  :      0.000u      0.000s      0.014w    124 calls
HF: Form D                  :      0.000u      0.000s      0.001w    124 calls
CIWave: CIvect write        :      0.000u      0.000s      0.000w     81 calls
CIWave: CIvect read         :      0.000u      0.000s      0.001w    416 calls
CIWave: s2                  :      0.000u      0.000s      0.000w      8 calls
CIWave: s1                  :      0.000u      0.000s      0.000w      8 calls
CIWave: s3                  :      0.000u      0.000s      0.000w      8 calls
| CIWave: s3_mt             :      0.000u      0.000s      0.000w    168 calls
CIWave: opdm                :      0.000u      0.000s      0.000w      2 calls
| CIWave: CIvect read       :      0.000u      0.000s      0.000w     14 calls

***********************************************************

Host: shannon-book.local

Timers On : Tue Sep  4 15:53:30 2018
Timers Off: Tue Sep  4 15:53:38 2018

Wall Time:        7.93 seconds

JK: (A|mn)                  :      0.067u      0.017s      0.046w      3 calls
JK: (A|Q)^-1/2              :      0.083u      0.000s      0.038w      3 calls
JK: (Q|mn)                  :      0.000u      0.000s      0.001w      3 calls
HF: Form H                  :      0.000u      0.000s      0.013w      3 calls
HF: Form S/X                :      0.000u      0.000s      0.001w      3 calls
HF: Guess                   :      0.150u      0.000s      0.095w      3 calls
SAD Guess                   :      0.150u      0.000s      0.089w      3 calls
HF: Form G                  :      1.883u      0.000s      1.135w    124 calls
JK: D                       :      0.000u      0.000s      0.001w    124 calls
JK: USO2AO                  :      0.000u      0.000s      0.000w    124 calls
JK: JK                      :      1.883u      0.000s      1.132w    124 calls
JK: J                       :      0.017u      0.000s      0.007w    100 calls
JK: J1                      :      0.017u      0.000s      0.003w    200 calls
JK: J2                      :      0.000u      0.000s      0.003w    200 calls
JK: K                       :      0.117u      0.000s      0.063w    100 calls
JK: K1                      :      0.100u      0.000s      0.053w    197 calls
JK: K2                      :      0.017u      0.000s      0.009w    197 calls
JK: AO2USO                  :      0.000u      0.000s      0.000w    124 calls
HF: Form F                  :      0.000u      0.000s      0.004w    124 calls
HF: DIIS                    :      0.000u      0.000s      0.011w    124 calls
DIISManager::add_entry      :      0.000u      0.000s      0.003w     64 calls
DIISManager::extrapolate    :      0.000u      0.000s      0.005w     61 calls
bMatrix setup               :      0.000u      0.000s      0.002w     61 calls
bMatrix pseudoinverse       :      0.000u      0.000s      0.001w     61 calls
New vector                  :      0.000u      0.000s      0.001w     61 calls
HF: Form C                  :      0.033u      0.000s      0.014w    124 calls
HF: Form D                  :      0.000u      0.000s      0.001w    124 calls
CIWave: CIvect write        :      0.000u      0.000s      0.000w     81 calls
CIWave: CIvect read         :      0.000u      0.017s      0.001w    430 calls
CIWave: s2                  :      0.000u      0.000s      0.000w      8 calls
CIWave: s1                  :      0.000u      0.000s      0.000w      8 calls
CIWave: s3                  :      0.000u      0.000s      0.000w      8 calls
CIWave: s3_mt               :      0.000u      0.000s      0.000w    168 calls
CIWave: opdm                :      0.000u      0.000s      0.000w      2 calls

-----------------------------------------------------------
JK: (A|mn)                  :      0.067u      0.017s      0.046w      3 calls
JK: (A|Q)^-1/2              :      0.083u      0.000s      0.038w      3 calls
JK: (Q|mn)                  :      0.000u      0.000s      0.001w      3 calls
HF: Form H                  :      0.000u      0.000s      0.013w      3 calls
HF: Form S/X                :      0.000u      0.000s      0.001w      3 calls
HF: Guess                   :      0.150u      0.000s      0.095w      3 calls
| SAD Guess                 :      0.150u      0.000s      0.089w      3 calls
HF: Form G                  :      1.883u      0.000s      1.135w    124 calls
| JK: D                     :      0.000u      0.000s      0.001w    124 calls
| JK: USO2AO                :      0.000u      0.000s      0.000w    124 calls
| JK: JK                    :      1.883u      0.000s      1.132w    124 calls
| | JK: J                   :      0.017u      0.000s      0.007w    100 calls
| | | JK: J1                :      0.017u      0.000s      0.003w    200 calls
| | | JK: J2                :      0.000u      0.000s      0.003w    200 calls
| | JK: K                   :      0.117u      0.000s      0.063w    100 calls
| | | JK: K1                :      0.100u      0.000s      0.053w    197 calls
| | | JK: K2                :      0.017u      0.000s      0.009w    197 calls
| JK: AO2USO                :      0.000u      0.000s      0.000w    124 calls
HF: Form F                  :      0.000u      0.000s      0.004w    124 calls
HF: DIIS                    :      0.000u      0.000s      0.011w    124 calls
| DIISManager::add_entry    :      0.000u      0.000s      0.003w     64 calls
| DIISManager::extrapolate  :      0.000u      0.000s      0.005w     61 calls
| | bMatrix setup           :      0.000u      0.000s      0.002w     61 calls
| | bMatrix pseudoinverse   :      0.000u      0.000s      0.001w     61 calls
| | New vector              :      0.000u      0.000s      0.001w     61 calls
HF: Form C                  :      0.033u      0.000s      0.014w    124 calls
HF: Form D                  :      0.000u      0.000s      0.001w    124 calls
CIWave: CIvect write        :      0.000u      0.000s      0.000w     81 calls
CIWave: CIvect read         :      0.000u      0.017s      0.001w    416 calls
CIWave: s2                  :      0.000u      0.000s      0.000w      8 calls
CIWave: s1                  :      0.000u      0.000s      0.000w      8 calls
CIWave: s3                  :      0.000u      0.000s      0.000w      8 calls
| CIWave: s3_mt             :      0.000u      0.000s      0.000w    168 calls
CIWave: opdm                :      0.000u      0.000s      0.000w      2 calls
| CIWave: CIvect read       :      0.000u      0.000s      0.000w     14 calls

***********************************************************

Host: shannon-book.local

Timers On : Tue Sep  4 15:53:55 2018
Timers Off: Tue Sep  4 15:54:07 2018

Wall Time:       12.16 seconds

JK: (A|mn)                  :      0.083u      0.000s      0.060w      4 calls
JK: (A|Q)^-1/2              :      0.067u      0.000s      0.049w      4 calls
JK: (Q|mn)                  :      0.000u      0.000s      0.002w      4 calls
HF: Form H                  :      0.033u      0.000s      0.017w      4 calls
HF: Form S/X                :      0.000u      0.000s      0.001w      4 calls
HF: Guess                   :      0.217u      0.000s      0.130w      4 calls
SAD Guess                   :      0.183u      0.000s      0.122w      4 calls
HF: Form G                  :      2.467u      0.017s      1.530w    166 calls
JK: D                       :      0.017u      0.000s      0.001w    166 calls
JK: USO2AO                  :      0.000u      0.000s      0.001w    166 calls
JK: JK                      :      2.450u      0.017s      1.525w    166 calls
JK: J                       :      0.000u      0.000s      0.010w    134 calls
JK: J1                      :      0.000u      0.000s      0.004w    268 calls
JK: J2                      :      0.000u      0.000s      0.004w    268 calls
JK: K                       :      0.083u      0.017s      0.082w    134 calls
JK: K1                      :      0.083u      0.017s      0.069w    264 calls
JK: K2                      :      0.000u      0.000s      0.012w    264 calls
JK: AO2USO                  :      0.000u      0.000s      0.000w    166 calls
HF: Form F                  :      0.000u      0.000s      0.005w    166 calls
HF: DIIS                    :      0.033u      0.033s      0.015w    166 calls
DIISManager::add_entry      :      0.000u      0.033s      0.004w     86 calls
DIISManager::extrapolate    :      0.033u      0.000s      0.007w     82 calls
bMatrix setup               :      0.000u      0.000s      0.002w     82 calls
bMatrix pseudoinverse       :      0.017u      0.000s      0.002w     82 calls
New vector                  :      0.017u      0.000s      0.002w     82 calls
HF: Form C                  :      0.033u      0.000s      0.018w    166 calls
HF: Form D                  :      0.000u      0.000s      0.001w    166 calls
CIWave: CIvect write        :      0.000u      0.000s      0.000w     81 calls
CIWave: CIvect read         :      0.000u      0.000s      0.001w    446 calls
CIWave: s2                  :      0.000u      0.000s      0.000w      8 calls
CIWave: s1                  :      0.000u      0.000s      0.000w      8 calls
CIWave: s3                  :      0.000u      0.000s      0.000w      8 calls
CIWave: s3_mt               :      0.000u      0.000s      0.000w    168 calls
CIWave: opdm                :      0.000u      0.000s      0.000w      4 calls

-----------------------------------------------------------
JK: (A|mn)                  :      0.083u      0.000s      0.060w      4 calls
JK: (A|Q)^-1/2              :      0.067u      0.000s      0.049w      4 calls
JK: (Q|mn)                  :      0.000u      0.000s      0.002w      4 calls
HF: Form H                  :      0.033u      0.000s      0.017w      4 calls
HF: Form S/X                :      0.000u      0.000s      0.001w      4 calls
HF: Guess                   :      0.217u      0.000s      0.130w      4 calls
| SAD Guess                 :      0.183u      0.000s      0.122w      4 calls
HF: Form G                  :      2.467u      0.017s      1.530w    166 calls
| JK: D                     :      0.017u      0.000s      0.001w    166 calls
| JK: USO2AO                :      0.000u      0.000s      0.001w    166 calls
| JK: JK                    :      2.450u      0.017s      1.525w    166 calls
| | JK: J                   :      0.000u      0.000s      0.010w    134 calls
| | | JK: J1                :      0.000u      0.000s      0.004w    268 calls
| | | JK: J2                :      0.000u      0.000s      0.004w    268 calls
| | JK: K                   :      0.083u      0.017s      0.082w    134 calls
| | | JK: K1                :      0.083u      0.017s      0.069w    264 calls
| | | JK: K2                :      0.000u      0.000s      0.012w    264 calls
| JK: AO2USO                :      0.000u      0.000s      0.000w    166 calls
HF: Form F                  :      0.000u      0.000s      0.005w    166 calls
HF: DIIS                    :      0.033u      0.033s      0.015w    166 calls
| DIISManager::add_entry    :      0.000u      0.033s      0.004w     86 calls
| DIISManager::extrapolate  :      0.033u      0.000s      0.007w     82 calls
| | bMatrix setup           :      0.000u      0.000s      0.002w     82 calls
| | bMatrix pseudoinverse   :      0.017u      0.000s      0.002w     82 calls
| | New vector              :      0.017u      0.000s      0.002w     82 calls
HF: Form C                  :      0.033u      0.000s      0.018w    166 calls
HF: Form D                  :      0.000u      0.000s      0.001w    166 calls
CIWave: CIvect write        :      0.000u      0.000s      0.000w     81 calls
CIWave: CIvect read         :      0.000u      0.000s      0.001w    418 calls
CIWave: s2                  :      0.000u      0.000s      0.000w      8 calls
CIWave: s1                  :      0.000u      0.000s      0.000w      8 calls
CIWave: s3                  :      0.000u      0.000s      0.000w      8 calls
| CIWave: s3_mt             :      0.000u      0.000s      0.000w    168 calls
CIWave: opdm                :      0.000u      0.000s      0.000w      4 calls
| CIWave: CIvect read       :      0.000u      0.000s      0.000w     28 calls

***********************************************************

Host: shannon-book.local

Timers On : Tue Sep  4 15:54:37 2018
Timers Off: Tue Sep  4 15:54:45 2018

Wall Time:        7.90 seconds

JK: (A|mn)                  :      0.083u      0.000s      0.046w      3 calls
JK: (A|Q)^-1/2              :      0.050u      0.033s      0.039w      3 calls
JK: (Q|mn)                  :      0.017u      0.000s      0.001w      3 calls
HF: Form H                  :      0.000u      0.017s      0.013w      3 calls
HF: Form S/X                :      0.000u      0.000s      0.001w      3 calls
HF: Guess                   :      0.150u      0.000s      0.094w      3 calls
SAD Guess                   :      0.133u      0.000s      0.088w      3 calls
HF: Form G                  :      1.900u      0.000s      1.141w    124 calls
JK: D                       :      0.000u      0.000s      0.001w    124 calls
JK: USO2AO                  :      0.000u      0.000s      0.000w    124 calls
JK: JK                      :      1.900u      0.000s      1.137w    124 calls
JK: J                       :      0.000u      0.000s      0.007w    100 calls
JK: J1                      :      0.000u      0.000s      0.003w    200 calls
JK: J2                      :      0.000u      0.000s      0.003w    200 calls
JK: K                       :      0.133u      0.000s      0.063w    100 calls
JK: K1                      :      0.117u      0.000s      0.053w    197 calls
JK: K2                      :      0.017u      0.000s      0.010w    197 calls
JK: AO2USO                  :      0.000u      0.000s      0.000w    124 calls
HF: Form F                  :      0.000u      0.000s      0.004w    124 calls
HF: DIIS                    :      0.017u      0.000s      0.011w    124 calls
DIISManager::add_entry      :      0.000u      0.000s      0.003w     64 calls
DIISManager::extrapolate    :      0.017u      0.000s      0.005w     61 calls
bMatrix setup               :      0.000u      0.000s      0.002w     61 calls
bMatrix pseudoinverse       :      0.000u      0.000s      0.001w     61 calls
New vector                  :      0.017u      0.000s      0.001w     61 calls
HF: Form C                  :      0.017u      0.000s      0.014w    124 calls
HF: Form D                  :      0.000u      0.000s      0.001w    124 calls
CIWave: CIvect write        :      0.000u      0.000s      0.000w     81 calls
CIWave: CIvect read         :      0.000u      0.017s      0.001w    430 calls
CIWave: s2                  :      0.000u      0.000s      0.000w      8 calls
CIWave: s1                  :      0.000u      0.000s      0.000w      8 calls
CIWave: s3                  :      0.000u      0.000s      0.001w      8 calls
CIWave: s3_mt               :      0.000u      0.000s      0.000w    168 calls
CIWave: opdm                :      0.000u      0.000s      0.000w      2 calls

-----------------------------------------------------------
JK: (A|mn)                  :      0.083u      0.000s      0.046w      3 calls
JK: (A|Q)^-1/2              :      0.050u      0.033s      0.039w      3 calls
JK: (Q|mn)                  :      0.017u      0.000s      0.001w      3 calls
HF: Form H                  :      0.000u      0.017s      0.013w      3 calls
HF: Form S/X                :      0.000u      0.000s      0.001w      3 calls
HF: Guess                   :      0.150u      0.000s      0.094w      3 calls
| SAD Guess                 :      0.133u      0.000s      0.088w      3 calls
HF: Form G                  :      1.900u      0.000s      1.141w    124 calls
| JK: D                     :      0.000u      0.000s      0.001w    124 calls
| JK: USO2AO                :      0.000u      0.000s      0.000w    124 calls
| JK: JK                    :      1.900u      0.000s      1.137w    124 calls
| | JK: J                   :      0.000u      0.000s      0.007w    100 calls
| | | JK: J1                :      0.000u      0.000s      0.003w    200 calls
| | | JK: J2                :      0.000u      0.000s      0.003w    200 calls
| | JK: K                   :      0.133u      0.000s      0.063w    100 calls
| | | JK: K1                :      0.117u      0.000s      0.053w    197 calls
| | | JK: K2                :      0.017u      0.000s      0.010w    197 calls
| JK: AO2USO                :      0.000u      0.000s      0.000w    124 calls
HF: Form F                  :      0.000u      0.000s      0.004w    124 calls
HF: DIIS                    :      0.017u      0.000s      0.011w    124 calls
| DIISManager::add_entry    :      0.000u      0.000s      0.003w     64 calls
| DIISManager::extrapolate  :      0.017u      0.000s      0.005w     61 calls
| | bMatrix setup           :      0.000u      0.000s      0.002w     61 calls
| | bMatrix pseudoinverse   :      0.000u      0.000s      0.001w     61 calls
| | New vector              :      0.017u      0.000s      0.001w     61 calls
HF: Form C                  :      0.017u      0.000s      0.014w    124 calls
HF: Form D                  :      0.000u      0.000s      0.001w    124 calls
CIWave: CIvect write        :      0.000u      0.000s      0.000w     81 calls
CIWave: CIvect read         :      0.000u      0.017s      0.001w    416 calls
CIWave: s2                  :      0.000u      0.000s      0.000w      8 calls
CIWave: s1                  :      0.000u      0.000s      0.000w      8 calls
CIWave: s3                  :      0.000u      0.000s      0.001w      8 calls
| CIWave: s3_mt             :      0.000u      0.000s      0.000w    168 calls
CIWave: opdm                :      0.000u      0.000s      0.000w      2 calls
| CIWave: CIvect read       :      0.000u      0.000s      0.000w     14 calls

***********************************************************

Host: shannon-book.local

Timers On : Tue Sep  4 15:55:12 2018
Timers Off: Tue Sep  4 15:55:24 2018

Wall Time:       12.21 seconds

JK: (A|mn)                  :      0.083u      0.000s      0.060w      4 calls
JK: (A|Q)^-1/2              :      0.083u      0.000s      0.050w      4 calls
JK: (Q|mn)                  :      0.017u      0.000s      0.002w      4 calls
HF: Form H                  :      0.000u      0.017s      0.016w      4 calls
HF: Form S/X                :      0.000u      0.000s      0.001w      4 calls
HF: Guess                   :      0.200u      0.000s      0.127w      4 calls
SAD Guess                   :      0.183u      0.000s      0.119w      4 calls
HF: Form G                  :      2.250u      0.000s      1.375w    143 calls
JK: D                       :      0.000u      0.000s      0.001w    143 calls
JK: USO2AO                  :      0.000u      0.000s      0.001w    143 calls
JK: JK                      :      2.250u      0.000s      1.371w    143 calls
JK: J                       :      0.000u      0.000s      0.008w    115 calls
JK: J1                      :      0.000u      0.000s      0.004w    230 calls
JK: J2                      :      0.000u      0.000s      0.004w    230 calls
JK: K                       :      0.133u      0.000s      0.073w    115 calls
JK: K1                      :      0.067u      0.000s      0.061w    226 calls
JK: K2                      :      0.067u      0.000s      0.011w    226 calls
JK: AO2USO                  :      0.000u      0.000s      0.000w    143 calls
HF: Form F                  :      0.017u      0.000s      0.004w    143 calls
HF: DIIS                    :      0.017u      0.000s      0.014w    143 calls
DIISManager::add_entry      :      0.000u      0.000s      0.004w     82 calls
DIISManager::extrapolate    :      0.000u      0.000s      0.006w     78 calls
bMatrix setup               :      0.000u      0.000s      0.002w     78 calls
bMatrix pseudoinverse       :      0.000u      0.000s      0.002w     78 calls
New vector                  :      0.000u      0.000s      0.002w     78 calls
HF: Form C                  :      0.033u      0.000s      0.016w    143 calls
HF: Form D                  :      0.000u      0.000s      0.001w    143 calls
CIWave: CIvect write        :      0.000u      0.000s      0.000w     81 calls
CIWave: CIvect read         :      0.000u      0.000s      0.001w    446 calls
CIWave: s2                  :      0.000u      0.000s      0.000w      8 calls
CIWave: s1                  :      0.000u      0.000s      0.000w      8 calls
CIWave: s3                  :      0.000u      0.000s      0.000w      8 calls
CIWave: s3_mt               :      0.000u      0.000s      0.000w    168 calls
CIWave: opdm                :      0.000u      0.000s      0.000w      4 calls

-----------------------------------------------------------
JK: (A|mn)                  :      0.083u      0.000s      0.060w      4 calls
JK: (A|Q)^-1/2              :      0.083u      0.000s      0.050w      4 calls
JK: (Q|mn)                  :      0.017u      0.000s      0.002w      4 calls
HF: Form H                  :      0.000u      0.017s      0.016w      4 calls
HF: Form S/X                :      0.000u      0.000s      0.001w      4 calls
HF: Guess                   :      0.200u      0.000s      0.127w      4 calls
| SAD Guess                 :      0.183u      0.000s      0.119w      4 calls
HF: Form G                  :      2.250u      0.000s      1.375w    143 calls
| JK: D                     :      0.000u      0.000s      0.001w    143 calls
| JK: USO2AO                :      0.000u      0.000s      0.001w    143 calls
| JK: JK                    :      2.250u      0.000s      1.371w    143 calls
| | JK: J                   :      0.000u      0.000s      0.008w    115 calls
| | | JK: J1                :      0.000u      0.000s      0.004w    230 calls
| | | JK: J2                :      0.000u      0.000s      0.004w    230 calls
| | JK: K                   :      0.133u      0.000s      0.073w    115 calls
| | | JK: K1                :      0.067u      0.000s      0.061w    226 calls
| | | JK: K2                :      0.067u      0.000s      0.011w    226 calls
| JK: AO2USO                :      0.000u      0.000s      0.000w    143 calls
HF: Form F                  :      0.017u      0.000s      0.004w    143 calls
HF: DIIS                    :      0.017u      0.000s      0.014w    143 calls
| DIISManager::add_entry    :      0.000u      0.000s      0.004w     82 calls
| DIISManager::extrapolate  :      0.000u      0.000s      0.006w     78 calls
| | bMatrix setup           :      0.000u      0.000s      0.002w     78 calls
| | bMatrix pseudoinverse   :      0.000u      0.000s      0.002w     78 calls
| | New vector              :      0.000u      0.000s      0.002w     78 calls
HF: Form C                  :      0.033u      0.000s      0.016w    143 calls
HF: Form D                  :      0.000u      0.000s      0.001w    143 calls
CIWave: CIvect write        :      0.000u      0.000s      0.000w     81 calls
CIWave: CIvect read         :      0.000u      0.000s      0.001w    418 calls
CIWave: s2                  :      0.000u      0.000s      0.000w      8 calls
CIWave: s1                  :      0.000u      0.000s      0.000w      8 calls
CIWave: s3                  :      0.000u      0.000s      0.000w      8 calls
| CIWave: s3_mt             :      0.000u      0.000s      0.000w    168 calls
CIWave: opdm                :      0.000u      0.000s      0.000w      4 calls
| CIWave: CIvect read       :      0.000u      0.000s      0.000w     28 calls

***********************************************************

Host: shannon-book.local

Timers On : Tue Sep  4 15:58:21 2018
Timers Off: Tue Sep  4 15:58:33 2018

Wall Time:       12.07 seconds

JK: (A|mn)                  :      0.133u      0.000s      0.061w      4 calls
JK: (A|Q)^-1/2              :      0.067u      0.000s      0.048w      4 calls
JK: (Q|mn)                  :      0.000u      0.000s      0.002w      4 calls
HF: Form H                  :      0.000u      0.000s      0.016w      4 calls
HF: Form S/X                :      0.000u      0.000s      0.001w      4 calls
HF: Guess                   :      0.217u      0.000s      0.123w      4 calls
SAD Guess                   :      0.200u      0.000s      0.115w      4 calls
HF: Form G                  :      2.200u      0.000s      1.324w    143 calls
JK: D                       :      0.000u      0.000s      0.001w    143 calls
JK: USO2AO                  :      0.000u      0.000s      0.001w    143 calls
JK: JK                      :      2.200u      0.000s      1.320w    143 calls
JK: J                       :      0.000u      0.000s      0.008w    115 calls
JK: J1                      :      0.000u      0.000s      0.004w    230 calls
JK: J2                      :      0.000u      0.000s      0.004w    230 calls
JK: K                       :      0.133u      0.000s      0.071w    115 calls
JK: K1                      :      0.133u      0.000s      0.060w    226 calls
JK: K2                      :      0.000u      0.000s      0.011w    226 calls
JK: AO2USO                  :      0.000u      0.000s      0.000w    143 calls
HF: Form F                  :      0.000u      0.000s      0.004w    143 calls
HF: DIIS                    :      0.017u      0.000s      0.014w    143 calls
DIISManager::add_entry      :      0.000u      0.000s      0.004w     82 calls
DIISManager::extrapolate    :      0.017u      0.000s      0.007w     78 calls
bMatrix setup               :      0.000u      0.000s      0.002w     78 calls
bMatrix pseudoinverse       :      0.017u      0.000s      0.002w     78 calls
New vector                  :      0.000u      0.000s      0.002w     78 calls
HF: Form C                  :      0.017u      0.000s      0.016w    143 calls
HF: Form D                  :      0.000u      0.000s      0.001w    143 calls
CIWave: CIvect write        :      0.000u      0.000s      0.000w     81 calls
CIWave: CIvect read         :      0.000u      0.000s      0.001w    446 calls
CIWave: s2                  :      0.000u      0.000s      0.000w      8 calls
CIWave: s1                  :      0.000u      0.000s      0.000w      8 calls
CIWave: s3                  :      0.000u      0.000s      0.000w      8 calls
CIWave: s3_mt               :      0.000u      0.000s      0.000w    168 calls
CIWave: opdm                :      0.000u      0.000s      0.000w      4 calls

-----------------------------------------------------------
JK: (A|mn)                  :      0.133u      0.000s      0.061w      4 calls
JK: (A|Q)^-1/2              :      0.067u      0.000s      0.048w      4 calls
JK: (Q|mn)                  :      0.000u      0.000s      0.002w      4 calls
HF: Form H                  :      0.000u      0.000s      0.016w      4 calls
HF: Form S/X                :      0.000u      0.000s      0.001w      4 calls
HF: Guess                   :      0.217u      0.000s      0.123w      4 calls
| SAD Guess                 :      0.200u      0.000s      0.115w      4 calls
HF: Form G                  :      2.200u      0.000s      1.324w    143 calls
| JK: D                     :      0.000u      0.000s      0.001w    143 calls
| JK: USO2AO                :      0.000u      0.000s      0.001w    143 calls
| JK: JK                    :      2.200u      0.000s      1.320w    143 calls
| | JK: J                   :      0.000u      0.000s      0.008w    115 calls
| | | JK: J1                :      0.000u      0.000s      0.004w    230 calls
| | | JK: J2                :      0.000u      0.000s      0.004w    230 calls
| | JK: K                   :      0.133u      0.000s      0.071w    115 calls
| | | JK: K1                :      0.133u      0.000s      0.060w    226 calls
| | | JK: K2                :      0.000u      0.000s      0.011w    226 calls
| JK: AO2USO                :      0.000u      0.000s      0.000w    143 calls
HF: Form F                  :      0.000u      0.000s      0.004w    143 calls
HF: DIIS                    :      0.017u      0.000s      0.014w    143 calls
| DIISManager::add_entry    :      0.000u      0.000s      0.004w     82 calls
| DIISManager::extrapolate  :      0.017u      0.000s      0.007w     78 calls
| | bMatrix setup           :      0.000u      0.000s      0.002w     78 calls
| | bMatrix pseudoinverse   :      0.017u      0.000s      0.002w     78 calls
| | New vector              :      0.000u      0.000s      0.002w     78 calls
HF: Form C                  :      0.017u      0.000s      0.016w    143 calls
HF: Form D                  :      0.000u      0.000s      0.001w    143 calls
CIWave: CIvect write        :      0.000u      0.000s      0.000w     81 calls
CIWave: CIvect read         :      0.000u      0.000s      0.001w    418 calls
CIWave: s2                  :      0.000u      0.000s      0.000w      8 calls
CIWave: s1                  :      0.000u      0.000s      0.000w      8 calls
CIWave: s3                  :      0.000u      0.000s      0.000w      8 calls
| CIWave: s3_mt             :      0.000u      0.000s      0.000w    168 calls
CIWave: opdm                :      0.000u      0.000s      0.000w      4 calls
| CIWave: CIvect read       :      0.000u      0.000s      0.000w     28 calls

***********************************************************

Host: shannon-book.local

Timers On : Tue Sep  4 16:00:59 2018
Timers Off: Tue Sep  4 16:01:11 2018

Wall Time:       12.07 seconds

JK: (A|mn)                  :      0.100u      0.000s      0.065w      4 calls
JK: (A|Q)^-1/2              :      0.100u      0.000s      0.052w      4 calls
JK: (Q|mn)                  :      0.000u      0.000s      0.001w      4 calls
HF: Form H                  :      0.017u      0.033s      0.016w      4 calls
HF: Form S/X                :      0.000u      0.000s      0.001w      4 calls
HF: Guess                   :      0.200u      0.000s      0.125w      4 calls
SAD Guess                   :      0.183u      0.000s      0.117w      4 calls
HF: Form G                  :      2.200u      0.000s      1.311w    143 calls
JK: D                       :      0.000u      0.000s      0.001w    143 calls
JK: USO2AO                  :      0.000u      0.000s      0.001w    143 calls
JK: JK                      :      2.200u      0.000s      1.307w    143 calls
JK: J                       :      0.000u      0.000s      0.008w    115 calls
JK: J1                      :      0.000u      0.000s      0.004w    230 calls
JK: J2                      :      0.000u      0.000s      0.004w    230 calls
JK: K                       :      0.150u      0.000s      0.072w    115 calls
JK: K1                      :      0.133u      0.000s      0.060w    226 calls
JK: K2                      :      0.017u      0.000s      0.011w    226 calls
JK: AO2USO                  :      0.000u      0.000s      0.000w    143 calls
HF: Form F                  :      0.000u      0.000s      0.004w    143 calls
HF: DIIS                    :      0.000u      0.000s      0.014w    143 calls
DIISManager::add_entry      :      0.000u      0.000s      0.004w     82 calls
DIISManager::extrapolate    :      0.000u      0.000s      0.006w     78 calls
bMatrix setup               :      0.000u      0.000s      0.002w     78 calls
bMatrix pseudoinverse       :      0.000u      0.000s      0.002w     78 calls
New vector                  :      0.000u      0.000s      0.002w     78 calls
HF: Form C                  :      0.017u      0.000s      0.016w    143 calls
HF: Form D                  :      0.000u      0.000s      0.001w    143 calls
CIWave: CIvect write        :      0.000u      0.000s      0.000w     81 calls
CIWave: CIvect read         :      0.000u      0.000s      0.001w    446 calls
CIWave: s2                  :      0.000u      0.000s      0.000w      8 calls
CIWave: s1                  :      0.000u      0.000s      0.000w      8 calls
CIWave: s3                  :      0.000u      0.000s      0.000w      8 calls
CIWave: s3_mt               :      0.000u      0.000s      0.000w    168 calls
CIWave: opdm                :      0.017u      0.000s      0.000w      4 calls

-----------------------------------------------------------
JK: (A|mn)                  :      0.100u      0.000s      0.065w      4 calls
JK: (A|Q)^-1/2              :      0.100u      0.000s      0.052w      4 calls
JK: (Q|mn)                  :      0.000u      0.000s      0.001w      4 calls
HF: Form H                  :      0.017u      0.033s      0.016w      4 calls
HF: Form S/X                :      0.000u      0.000s      0.001w      4 calls
HF: Guess                   :      0.200u      0.000s      0.125w      4 calls
| SAD Guess                 :      0.183u      0.000s      0.117w      4 calls
HF: Form G                  :      2.200u      0.000s      1.311w    143 calls
| JK: D                     :      0.000u      0.000s      0.001w    143 calls
| JK: USO2AO                :      0.000u      0.000s      0.001w    143 calls
| JK: JK                    :      2.200u      0.000s      1.307w    143 calls
| | JK: J                   :      0.000u      0.000s      0.008w    115 calls
| | | JK: J1                :      0.000u      0.000s      0.004w    230 calls
| | | JK: J2                :      0.000u      0.000s      0.004w    230 calls
| | JK: K                   :      0.150u      0.000s      0.072w    115 calls
| | | JK: K1                :      0.133u      0.000s      0.060w    226 calls
| | | JK: K2                :      0.017u      0.000s      0.011w    226 calls
| JK: AO2USO                :      0.000u      0.000s      0.000w    143 calls
HF: Form F                  :      0.000u      0.000s      0.004w    143 calls
HF: DIIS                    :      0.000u      0.000s      0.014w    143 calls
| DIISManager::add_entry    :      0.000u      0.000s      0.004w     82 calls
| DIISManager::extrapolate  :      0.000u      0.000s      0.006w     78 calls
| | bMatrix setup           :      0.000u      0.000s      0.002w     78 calls
| | bMatrix pseudoinverse   :      0.000u      0.000s      0.002w     78 calls
| | New vector              :      0.000u      0.000s      0.002w     78 calls
HF: Form C                  :      0.017u      0.000s      0.016w    143 calls
HF: Form D                  :      0.000u      0.000s      0.001w    143 calls
CIWave: CIvect write        :      0.000u      0.000s      0.000w     81 calls
CIWave: CIvect read         :      0.000u      0.000s      0.001w    418 calls
CIWave: s2                  :      0.000u      0.000s      0.000w      8 calls
CIWave: s1                  :      0.000u      0.000s      0.000w      8 calls
CIWave: s3                  :      0.000u      0.000s      0.000w      8 calls
| CIWave: s3_mt             :      0.000u      0.000s      0.000w    168 calls
CIWave: opdm                :      0.017u      0.000s      0.000w      4 calls
| CIWave: CIvect read       :      0.000u      0.000s      0.000w     28 calls

***********************************************************

Host: shannon-book.local

Timers On : Tue Sep  4 16:18:42 2018
Timers Off: Tue Sep  4 16:18:52 2018

Wall Time:       10.71 seconds

JK: (A|mn)                  :      0.133u      0.000s      0.061w      4 calls
JK: (A|Q)^-1/2              :      0.067u      0.000s      0.050w      4 calls
JK: (Q|mn)                  :      0.000u      0.000s      0.001w      4 calls
HF: Form H                  :      0.000u      0.017s      0.014w      4 calls
HF: Form S/X                :      0.000u      0.000s      0.001w      4 calls
HF: Guess                   :      0.100u      0.000s      0.061w      4 calls
SAD Guess                   :      0.100u      0.000s      0.057w      2 calls
HF: Form G                  :      1.267u      0.017s      0.763w    112 calls
JK: D                       :      0.000u      0.000s      0.001w    112 calls
JK: USO2AO                  :      0.000u      0.000s      0.000w    112 calls
JK: JK                      :      1.267u      0.017s      0.760w    112 calls
JK: J                       :      0.017u      0.000s      0.006w     96 calls
JK: J1                      :      0.000u      0.000s      0.003w    192 calls
JK: J2                      :      0.000u      0.000s      0.003w    192 calls
JK: K                       :      0.100u      0.017s      0.057w     96 calls
JK: K1                      :      0.100u      0.017s      0.049w    190 calls
JK: K2                      :      0.000u      0.000s      0.008w    190 calls
JK: AO2USO                  :      0.000u      0.000s      0.000w    112 calls
HF: Form F                  :      0.000u      0.000s      0.003w    112 calls
HF: DIIS                    :      0.033u      0.000s      0.009w    112 calls
DIISManager::add_entry      :      0.000u      0.000s      0.003w     53 calls
DIISManager::extrapolate    :      0.000u      0.000s      0.004w     49 calls
bMatrix setup               :      0.000u      0.000s      0.001w     49 calls
bMatrix pseudoinverse       :      0.000u      0.000s      0.001w     49 calls
New vector                  :      0.000u      0.000s      0.001w     49 calls
HF: Form C                  :      0.017u      0.000s      0.012w    112 calls
HF: Form D                  :      0.000u      0.000s      0.001w    112 calls
CIWave: CIvect write        :      0.000u      0.000s      0.000w     81 calls
CIWave: CIvect read         :      0.000u      0.000s      0.001w    446 calls
CIWave: s2                  :      0.000u      0.000s      0.000w      8 calls
CIWave: s1                  :      0.000u      0.000s      0.000w      8 calls
CIWave: s3                  :      0.000u      0.000s      0.000w      8 calls
CIWave: s3_mt               :      0.000u      0.000s      0.000w    168 calls
CIWave: opdm                :      0.000u      0.000s      0.000w      4 calls

-----------------------------------------------------------
JK: (A|mn)                  :      0.133u      0.000s      0.061w      4 calls
JK: (A|Q)^-1/2              :      0.067u      0.000s      0.050w      4 calls
JK: (Q|mn)                  :      0.000u      0.000s      0.001w      4 calls
HF: Form H                  :      0.000u      0.017s      0.014w      4 calls
HF: Form S/X                :      0.000u      0.000s      0.001w      4 calls
HF: Guess                   :      0.100u      0.000s      0.061w      4 calls
| SAD Guess                 :      0.100u      0.000s      0.057w      2 calls
HF: Form G                  :      1.267u      0.017s      0.763w    112 calls
| JK: D                     :      0.000u      0.000s      0.001w    112 calls
| JK: USO2AO                :      0.000u      0.000s      0.000w    112 calls
| JK: JK                    :      1.267u      0.017s      0.760w    112 calls
| | JK: J                   :      0.017u      0.000s      0.006w     96 calls
| | | JK: J1                :      0.000u      0.000s      0.003w    192 calls
| | | JK: J2                :      0.000u      0.000s      0.003w    192 calls
| | JK: K                   :      0.100u      0.017s      0.057w     96 calls
| | | JK: K1                :      0.100u      0.017s      0.049w    190 calls
| | | JK: K2                :      0.000u      0.000s      0.008w    190 calls
| JK: AO2USO                :      0.000u      0.000s      0.000w    112 calls
HF: Form F                  :      0.000u      0.000s      0.003w    112 calls
HF: DIIS                    :      0.033u      0.000s      0.009w    112 calls
| DIISManager::add_entry    :      0.000u      0.000s      0.003w     53 calls
| DIISManager::extrapolate  :      0.000u      0.000s      0.004w     49 calls
| | bMatrix setup           :      0.000u      0.000s      0.001w     49 calls
| | bMatrix pseudoinverse   :      0.000u      0.000s      0.001w     49 calls
| | New vector              :      0.000u      0.000s      0.001w     49 calls
HF: Form C                  :      0.017u      0.000s      0.012w    112 calls
HF: Form D                  :      0.000u      0.000s      0.001w    112 calls
CIWave: CIvect write        :      0.000u      0.000s      0.000w     81 calls
CIWave: CIvect read         :      0.000u      0.000s      0.001w    418 calls
CIWave: s2                  :      0.000u      0.000s      0.000w      8 calls
CIWave: s1                  :      0.000u      0.000s      0.000w      8 calls
CIWave: s3                  :      0.000u      0.000s      0.000w      8 calls
| CIWave: s3_mt             :      0.000u      0.000s      0.000w    168 calls
CIWave: opdm                :      0.000u      0.000s      0.000w      4 calls
| CIWave: CIvect read       :      0.000u      0.000s      0.000w     28 calls

***********************************************************

Host: shannon-book.local

Timers On : Tue Sep  4 16:19:20 2018
Timers Off: Tue Sep  4 16:19:30 2018

Wall Time:        9.97 seconds

Total PK formation time     :      0.350u      0.000s      0.217w      4 calls
HF: Form H                  :      0.000u      0.000s      0.014w      4 calls
HF: Form S/X                :      0.000u      0.000s      0.001w      4 calls
HF: Guess                   :      0.117u      0.000s      0.062w      4 calls
SAD Guess                   :      0.100u      0.000s      0.058w      2 calls
HF: Form G                  :      0.067u      0.000s      0.033w     96 calls
JK: D                       :      0.000u      0.000s      0.001w     96 calls
JK: USO2AO                  :      0.000u      0.000s      0.000w     96 calls
JK: JK                      :      0.067u      0.000s      0.031w     96 calls
PK computes JK              :      0.067u      0.000s      0.031w     96 calls
JK: AO2USO                  :      0.000u      0.000s      0.000w     96 calls
HF: Form F                  :      0.017u      0.000s      0.002w     96 calls
HF: DIIS                    :      0.000u      0.000s      0.007w     96 calls
DIISManager::add_entry      :      0.000u      0.000s      0.002w     37 calls
DIISManager::extrapolate    :      0.000u      0.000s      0.003w     33 calls
bMatrix setup               :      0.000u      0.000s      0.001w     33 calls
bMatrix pseudoinverse       :      0.000u      0.000s      0.001w     33 calls
New vector                  :      0.000u      0.000s      0.001w     33 calls
HF: Form C                  :      0.000u      0.000s      0.011w     96 calls
HF: Form D                  :      0.000u      0.000s      0.001w     96 calls
CIWave: CIvect write        :      0.000u      0.000s      0.000w     81 calls
CIWave: CIvect read         :      0.000u      0.000s      0.001w    446 calls
CIWave: s2                  :      0.000u      0.000s      0.000w      8 calls
CIWave: s1                  :      0.000u      0.000s      0.000w      8 calls
CIWave: s3                  :      0.000u      0.000s      0.000w      8 calls
CIWave: s3_mt               :      0.000u      0.000s      0.000w    168 calls
CIWave: opdm                :      0.000u      0.000s      0.000w      4 calls

-----------------------------------------------------------
Total PK formation time     :      0.350u      0.000s      0.217w      4 calls
HF: Form H                  :      0.000u      0.000s      0.014w      4 calls
HF: Form S/X                :      0.000u      0.000s      0.001w      4 calls
HF: Guess                   :      0.117u      0.000s      0.062w      4 calls
| SAD Guess                 :      0.100u      0.000s      0.058w      2 calls
HF: Form G                  :      0.067u      0.000s      0.033w     96 calls
| JK: D                     :      0.000u      0.000s      0.001w     96 calls
| JK: USO2AO                :      0.000u      0.000s      0.000w     96 calls
| JK: JK                    :      0.067u      0.000s      0.031w     96 calls
| | PK computes JK          :      0.067u      0.000s      0.031w     96 calls
| JK: AO2USO                :      0.000u      0.000s      0.000w     96 calls
HF: Form F                  :      0.017u      0.000s      0.002w     96 calls
HF: DIIS                    :      0.000u      0.000s      0.007w     96 calls
| DIISManager::add_entry    :      0.000u      0.000s      0.002w     37 calls
| DIISManager::extrapolate  :      0.000u      0.000s      0.003w     33 calls
| | bMatrix setup           :      0.000u      0.000s      0.001w     33 calls
| | bMatrix pseudoinverse   :      0.000u      0.000s      0.001w     33 calls
| | New vector              :      0.000u      0.000s      0.001w     33 calls
HF: Form C                  :      0.000u      0.000s      0.011w     96 calls
HF: Form D                  :      0.000u      0.000s      0.001w     96 calls
CIWave: CIvect write        :      0.000u      0.000s      0.000w     81 calls
CIWave: CIvect read         :      0.000u      0.000s      0.001w    418 calls
CIWave: s2                  :      0.000u      0.000s      0.000w      8 calls
CIWave: s1                  :      0.000u      0.000s      0.000w      8 calls
CIWave: s3                  :      0.000u      0.000s      0.000w      8 calls
| CIWave: s3_mt             :      0.000u      0.000s      0.000w    168 calls
CIWave: opdm                :      0.000u      0.000s      0.000w      4 calls
| CIWave: CIvect read       :      0.000u      0.000s      0.000w     28 calls

***********************************************************

Host: shannon-book.local

Timers On : Tue Sep  4 16:20:04 2018
Timers Off: Tue Sep  4 16:20:16 2018

Wall Time:       11.16 seconds

JK: (A|mn)                  :      0.117u      0.000s      0.059w      4 calls
JK: (A|Q)^-1/2              :      0.067u      0.000s      0.049w      4 calls
JK: (Q|mn)                  :      0.000u      0.000s      0.001w      4 calls
HF: Form H                  :      0.000u      0.000s      0.013w      4 calls
HF: Form S/X                :      0.000u      0.000s      0.001w      4 calls
HF: Guess                   :      0.100u      0.000s      0.060w      4 calls
SAD Guess                   :      0.083u      0.000s      0.056w      2 calls
HF: Form G                  :      2.133u      0.000s      1.280w    124 calls
JK: D                       :      0.000u      0.000s      0.001w    124 calls
JK: USO2AO                  :      0.000u      0.000s      0.000w    124 calls
JK: JK                      :      2.133u      0.000s      1.277w    124 calls
JK: J                       :      0.000u      0.000s      0.007w     96 calls
JK: J1                      :      0.000u      0.000s      0.003w    192 calls
JK: J2                      :      0.000u      0.000s      0.003w    192 calls
JK: K                       :      0.150u      0.000s      0.058w     96 calls
JK: K1                      :      0.133u      0.000s      0.049w    190 calls
JK: K2                      :      0.017u      0.000s      0.009w    190 calls
JK: AO2USO                  :      0.000u      0.000s      0.000w    124 calls
HF: Form F                  :      0.000u      0.000s      0.004w    124 calls
HF: DIIS                    :      0.000u      0.017s      0.011w    124 calls
DIISManager::add_entry      :      0.000u      0.000s      0.004w     65 calls
DIISManager::extrapolate    :      0.000u      0.017s      0.005w     61 calls
bMatrix setup               :      0.000u      0.000s      0.002w     61 calls
bMatrix pseudoinverse       :      0.000u      0.000s      0.001w     61 calls
New vector                  :      0.000u      0.017s      0.001w     61 calls
HF: Form C                  :      0.000u      0.000s      0.013w    124 calls
HF: Form D                  :      0.017u      0.000s      0.001w    124 calls
CIWave: CIvect write        :      0.000u      0.000s      0.000w     81 calls
CIWave: CIvect read         :      0.000u      0.000s      0.001w    446 calls
CIWave: s2                  :      0.000u      0.000s      0.000w      8 calls
CIWave: s1                  :      0.000u      0.000s      0.000w      8 calls
CIWave: s3                  :      0.000u      0.000s      0.000w      8 calls
CIWave: s3_mt               :      0.000u      0.000s      0.000w    168 calls
CIWave: opdm                :      0.000u      0.000s      0.000w      4 calls

-----------------------------------------------------------
JK: (A|mn)                  :      0.117u      0.000s      0.059w      4 calls
JK: (A|Q)^-1/2              :      0.067u      0.000s      0.049w      4 calls
JK: (Q|mn)                  :      0.000u      0.000s      0.001w      4 calls
HF: Form H                  :      0.000u      0.000s      0.013w      4 calls
HF: Form S/X                :      0.000u      0.000s      0.001w      4 calls
HF: Guess                   :      0.100u      0.000s      0.060w      4 calls
| SAD Guess                 :      0.083u      0.000s      0.056w      2 calls
HF: Form G                  :      2.133u      0.000s      1.280w    124 calls
| JK: D                     :      0.000u      0.000s      0.001w    124 calls
| JK: USO2AO                :      0.000u      0.000s      0.000w    124 calls
| JK: JK                    :      2.133u      0.000s      1.277w    124 calls
| | JK: J                   :      0.000u      0.000s      0.007w     96 calls
| | | JK: J1                :      0.000u      0.000s      0.003w    192 calls
| | | JK: J2                :      0.000u      0.000s      0.003w    192 calls
| | JK: K                   :      0.150u      0.000s      0.058w     96 calls
| | | JK: K1                :      0.133u      0.000s      0.049w    190 calls
| | | JK: K2                :      0.017u      0.000s      0.009w    190 calls
| JK: AO2USO                :      0.000u      0.000s      0.000w    124 calls
HF: Form F                  :      0.000u      0.000s      0.004w    124 calls
HF: DIIS                    :      0.000u      0.017s      0.011w    124 calls
| DIISManager::add_entry    :      0.000u      0.000s      0.004w     65 calls
| DIISManager::extrapolate  :      0.000u      0.017s      0.005w     61 calls
| | bMatrix setup           :      0.000u      0.000s      0.002w     61 calls
| | bMatrix pseudoinverse   :      0.000u      0.000s      0.001w     61 calls
| | New vector              :      0.000u      0.017s      0.001w     61 calls
HF: Form C                  :      0.000u      0.000s      0.013w    124 calls
HF: Form D                  :      0.017u      0.000s      0.001w    124 calls
CIWave: CIvect write        :      0.000u      0.000s      0.000w     81 calls
CIWave: CIvect read         :      0.000u      0.000s      0.001w    418 calls
CIWave: s2                  :      0.000u      0.000s      0.000w      8 calls
CIWave: s1                  :      0.000u      0.000s      0.000w      8 calls
CIWave: s3                  :      0.000u      0.000s      0.000w      8 calls
| CIWave: s3_mt             :      0.000u      0.000s      0.000w    168 calls
CIWave: opdm                :      0.000u      0.000s      0.000w      4 calls
| CIWave: CIvect read       :      0.000u      0.000s      0.000w     28 calls

***********************************************************

Host: shannon-book.local

Timers On : Tue Sep  4 16:21:46 2018
Timers Off: Tue Sep  4 16:21:57 2018

Wall Time:       10.37 seconds

JK: (A|mn)                  :      0.050u      0.000s      0.029w      2 calls
JK: (A|Q)^-1/2              :      0.033u      0.000s      0.024w      2 calls
JK: (Q|mn)                  :      0.000u      0.000s      0.001w      2 calls
HF: Form H                  :      0.000u      0.000s      0.014w      4 calls
HF: Form S/X                :      0.000u      0.000s      0.001w      4 calls
HF: Guess                   :      0.100u      0.000s      0.062w      4 calls
SAD Guess                   :      0.083u      0.000s      0.058w      2 calls
[...]
| DIISManager::add_entry    :      0.000u      0.000s      0.002w     28 calls
| DIISManager::extrapolate  :      0.000u      0.000s      0.002w     24 calls
| | bMatrix setup           :      0.000u      0.000s      0.001w     24 calls
| | bMatrix pseudoinverse   :      0.000u      0.000s      0.000w     24 calls
| | New vector              :      0.000u      0.000s      0.000w     24 calls
HF: Form C                  :      0.067u      0.000s      0.011w    100 calls
HF: Form D                  :      0.000u      0.000s      0.001w    100 calls
CIWave: CIvect write        :      0.000u      0.000s      0.000w      9 calls
CIWave: opdm                :      0.000u      0.000s      0.001w      4 calls
| CIWave: CIvect read       :      0.000u      0.000s      0.000w     28 calls
CIWave: CIvect read         :      0.000u      0.000s      0.000w      9 calls

***********************************************************

Host: shannon-book.local

Timers On : Wed Dec 12 16:21:34 2018
Timers Off: Wed Dec 12 16:21:38 2018

Wall Time:        4.19 seconds

Total PK formation time     :      0.550u      0.000s      0.327w      6 calls
HF: Form H                  :      0.000u      0.017s      0.019w      6 calls
HF: Form S/X                :      0.000u      0.000s      0.002w      6 calls
HF: Guess                   :      0.000u      0.000s      0.001w      6 calls
HF: Form G                  :      0.067u      0.000s      0.033w    100 calls
JK: D                       :      0.000u      0.000s      0.001w    100 calls
JK: USO2AO                  :      0.000u      0.000s      0.000w    100 calls
JK: JK                      :      0.067u      0.000s      0.031w    100 calls
PK computes JK              :      0.067u      0.000s      0.031w    100 calls
JK: AO2USO                  :      0.000u      0.000s      0.000w    100 calls
HF: Form F                  :      0.000u      0.000s      0.002w    100 calls
HF: DIIS                    :      0.017u      0.000s      0.007w    100 calls
DIISManager::add_entry      :      0.017u      0.000s      0.003w     28 calls
DIISManager::extrapolate    :      0.000u      0.000s      0.002w     24 calls
bMatrix setup               :      0.000u      0.000s      0.001w     24 calls
bMatrix pseudoinverse       :      0.000u      0.000s      0.000w     24 calls
New vector                  :      0.000u      0.000s      0.000w     24 calls
HF: Form C                  :      0.000u      0.000s      0.011w    100 calls
HF: Form D                  :      0.000u      0.000s      0.001w    100 calls
CIWave: CIvect write        :      0.000u      0.000s      0.000w      9 calls
CIWave: opdm                :      0.000u      0.000s      0.000w      4 calls
CIWave: CIvect read         :      0.000u      0.000s      0.000w     37 calls

-----------------------------------------------------------
Total PK formation time     :      0.550u      0.000s      0.327w      6 calls
HF: Form H                  :      0.000u      0.017s      0.019w      6 calls
HF: Form S/X                :      0.000u      0.000s      0.002w      6 calls
HF: Guess                   :      0.000u      0.000s      0.001w      6 calls
HF: Form G                  :      0.067u      0.000s      0.033w    100 calls
| JK: D                     :      0.000u      0.000s      0.001w    100 calls
| JK: USO2AO                :      0.000u      0.000s      0.000w    100 calls
| JK: JK                    :      0.067u      0.000s      0.031w    100 calls
| | PK computes JK          :      0.067u      0.000s      0.031w    100 calls
| JK: AO2USO                :      0.000u      0.000s      0.000w    100 calls
HF: Form F                  :      0.000u      0.000s      0.002w    100 calls
HF: DIIS                    :      0.017u      0.000s      0.007w    100 calls
| DIISManager::add_entry    :      0.017u      0.000s      0.003w     28 calls
| DIISManager::extrapolate  :      0.000u      0.000s      0.002w     24 calls
| | bMatrix setup           :      0.000u      0.000s      0.001w     24 calls
| | bMatrix pseudoinverse   :      0.000u      0.000s      0.000w     24 calls
| | New vector              :      0.000u      0.000s      0.000w     24 calls
HF: Form C                  :      0.000u      0.000s      0.011w    100 calls
HF: Form D                  :      0.000u      0.000s      0.001w    100 calls
CIWave: CIvect write        :      0.000u      0.000s      0.000w      9 calls
CIWave: opdm                :      0.000u      0.000s      0.000w      4 calls
| CIWave: CIvect read       :      0.000u      0.000s      0.000w     28 calls
CIWave: CIvect read         :      0.000u      0.000s      0.000w      9 calls

***********************************************************

Host: shannon-book.local

Timers On : Wed Dec 12 16:22:08 2018
Timers Off: Wed Dec 12 16:22:12 2018

Wall Time:        3.46 seconds

Total PK formation time     :      0.533u      0.000s      0.325w      6 calls
HF: Form H                  :      0.000u      0.050s      0.019w      6 calls
HF: Form S/X                :      0.000u      0.000s      0.002w      6 calls
HF: Guess                   :      0.000u      0.000s      0.001w      6 calls
HF: Form G                  :      0.050u      0.000s      0.034w    100 calls
JK: D                       :      0.000u      0.000s      0.001w    100 calls
JK: USO2AO                  :      0.000u      0.000s      0.000w    100 calls
JK: JK                      :      0.050u      0.000s      0.032w    100 calls
PK computes JK              :      0.050u      0.000s      0.032w    100 calls
JK: AO2USO                  :      0.000u      0.000s      0.000w    100 calls
HF: Form F                  :      0.000u      0.000s      0.003w    100 calls
HF: DIIS                    :      0.000u      0.000s      0.006w    100 calls
DIISManager::add_entry      :      0.000u      0.000s      0.003w     28 calls
DIISManager::extrapolate    :      0.000u      0.000s      0.002w     24 calls
bMatrix setup               :      0.000u      0.000s      0.001w     24 calls
bMatrix pseudoinverse       :      0.000u      0.000s      0.000w     24 calls
New vector                  :      0.000u      0.000s      0.000w     24 calls
HF: Form C                  :      0.033u      0.000s      0.011w    100 calls
HF: Form D                  :      0.000u      0.000s      0.001w    100 calls
CIWave: CIvect write        :      0.000u      0.000s      0.000w      9 calls
CIWave: opdm                :      0.000u      0.000s      0.000w      4 calls
CIWave: CIvect read         :      0.000u      0.000s      0.000w     37 calls

-----------------------------------------------------------
Total PK formation time     :      0.533u      0.000s      0.325w      6 calls
HF: Form H                  :      0.000u      0.050s      0.019w      6 calls
HF: Form S/X                :      0.000u      0.000s      0.002w      6 calls
HF: Guess                   :      0.000u      0.000s      0.001w      6 calls
HF: Form G                  :      0.050u      0.000s      0.034w    100 calls
| JK: D                     :      0.000u      0.000s      0.001w    100 calls
| JK: USO2AO                :      0.000u      0.000s      0.000w    100 calls
| JK: JK                    :      0.050u      0.000s      0.032w    100 calls
| | PK computes JK          :      0.050u      0.000s      0.032w    100 calls
| JK: AO2USO                :      0.000u      0.000s      0.000w    100 calls
HF: Form F                  :      0.000u      0.000s      0.003w    100 calls
HF: DIIS                    :      0.000u      0.000s      0.006w    100 calls
| DIISManager::add_entry    :      0.000u      0.000s      0.003w     28 calls
| DIISManager::extrapolate  :      0.000u      0.000s      0.002w     24 calls
| | bMatrix setup           :      0.000u      0.000s      0.001w     24 calls
| | bMatrix pseudoinverse   :      0.000u      0.000s      0.000w     24 calls
| | New vector              :      0.000u      0.000s      0.000w     24 calls
HF: Form C                  :      0.033u      0.000s      0.011w    100 calls
HF: Form D                  :      0.000u      0.000s      0.001w    100 calls
CIWave: CIvect write        :      0.000u      0.000s      0.000w      9 calls
CIWave: opdm                :      0.000u      0.000s      0.000w      4 calls
| CIWave: CIvect read       :      0.000u      0.000s      0.000w     28 calls
CIWave: CIvect read         :      0.000u      0.000s      0.000w      9 calls

***********************************************************

Host: shannon-book.local

Timers On : Wed Dec 12 16:42:59 2018
Timers Off: Wed Dec 12 16:43:02 2018

Wall Time:        3.53 seconds

Total PK formation time     :      0.533u      0.000s      0.320w      6 calls
HF: Form H                  :      0.000u      0.017s      0.020w      6 calls
HF: Form S/X                :      0.017u      0.000s      0.002w      6 calls
HF: Guess                   :      0.017u      0.000s      0.001w      6 calls
HF: Form G                  :      0.017u      0.000s      0.034w    100 calls
JK: D                       :      0.000u      0.000s      0.001w    100 calls
JK: USO2AO                  :      0.000u      0.000s      0.000w    100 calls
JK: JK                      :      0.017u      0.000s      0.031w    100 calls
PK computes JK              :      0.017u      0.000s      0.031w    100 calls
JK: AO2USO                  :      0.000u      0.000s      0.000w    100 calls
HF: Form F                  :      0.000u      0.000s      0.003w    100 calls
HF: DIIS                    :      0.017u      0.017s      0.007w    100 calls
DIISManager::add_entry      :      0.000u      0.000s      0.003w     28 calls
DIISManager::extrapolate    :      0.017u      0.017s      0.002w     24 calls
bMatrix setup               :      0.017u      0.000s      0.001w     24 calls
bMatrix pseudoinverse       :      0.000u      0.000s      0.000w     24 calls
New vector                  :      0.000u      0.017s      0.000w     24 calls
HF: Form C                  :      0.033u      0.000s      0.010w    100 calls
HF: Form D                  :      0.000u      0.000s      0.001w    100 calls
CIWave: CIvect write        :      0.000u      0.000s      0.000w      9 calls
CIWave: opdm                :      0.000u      0.000s      0.000w      4 calls
CIWave: CIvect read         :      0.000u      0.000s      0.000w     37 calls

-----------------------------------------------------------
Total PK formation time     :      0.533u      0.000s      0.320w      6 calls
HF: Form H                  :      0.000u      0.017s      0.020w      6 calls
HF: Form S/X                :      0.017u      0.000s      0.002w      6 calls
HF: Guess                   :      0.017u      0.000s      0.001w      6 calls
HF: Form G                  :      0.017u      0.000s      0.034w    100 calls
| JK: D                     :      0.000u      0.000s      0.001w    100 calls
| JK: USO2AO                :      0.000u      0.000s      0.000w    100 calls
| JK: JK                    :      0.017u      0.000s      0.031w    100 calls
| | PK computes JK          :      0.017u      0.000s      0.031w    100 calls
| JK: AO2USO                :      0.000u      0.000s      0.000w    100 calls
HF: Form F                  :      0.000u      0.000s      0.003w    100 calls
HF: DIIS                    :      0.017u      0.017s      0.007w    100 calls
| DIISManager::add_entry    :      0.000u      0.000s      0.003w     28 calls
| DIISManager::extrapolate  :      0.017u      0.017s      0.002w     24 calls
| | bMatrix setup           :      0.017u      0.000s      0.001w     24 calls
| | bMatrix pseudoinverse   :      0.000u      0.000s      0.000w     24 calls
| | New vector              :      0.000u      0.017s      0.000w     24 calls
HF: Form C                  :      0.033u      0.000s      0.010w    100 calls
HF: Form D                  :      0.000u      0.000s      0.001w    100 calls
CIWave: CIvect write        :      0.000u      0.000s      0.000w      9 calls
CIWave: opdm                :      0.000u      0.000s      0.000w      4 calls
| CIWave: CIvect read       :      0.000u      0.000s      0.000w     28 calls
CIWave: CIvect read         :      0.000u      0.000s      0.000w      9 calls

***********************************************************

Host: shannon-book.local

Timers On : Thu Dec 13 15:53:12 2018
Timers Off: Thu Dec 13 15:53:21 2018

Wall Time:        9.24 seconds

Total PK formation time     :      0.550u      0.017s      0.345w      6 calls
HF: Form H                  :      0.000u      0.017s      0.021w      6 calls
HF: Form S/X                :      0.033u      0.000s      0.002w      6 calls
HF: Guess                   :      0.000u      0.000s      0.001w      6 calls
HF: Form G                  :      0.067u      0.000s      0.035w    100 calls
JK: D                       :      0.000u      0.000s      0.001w    100 calls
JK: USO2AO                  :      0.000u      0.000s      0.000w    100 calls
JK: JK                      :      0.067u      0.000s      0.033w    100 calls
PK computes JK              :      0.067u      0.000s      0.032w    100 calls
JK: AO2USO                  :      0.000u      0.000s      0.000w    100 calls
HF: Form F                  :      0.000u      0.000s      0.003w    100 calls
HF: DIIS                    :      0.000u      0.017s      0.008w    100 calls
DIISManager::add_entry      :      0.000u      0.017s      0.003w     28 calls
DIISManager::extrapolate    :      0.000u      0.000s      0.002w     24 calls
bMatrix setup               :      0.000u      0.000s      0.001w     24 calls
bMatrix pseudoinverse       :      0.000u      0.000s      0.000w     24 calls
New vector                  :      0.000u      0.000s      0.000w     24 calls
HF: Form C                  :      0.000u      0.000s      0.011w    100 calls
HF: Form D                  :      0.000u      0.000s      0.001w    100 calls
CIWave: CIvect write        :      0.000u      0.000s      0.000w      9 calls
CIWave: opdm                :      0.000u      0.000s      0.000w      4 calls
CIWave: CIvect read         :      0.000u      0.000s      0.000w     37 calls

-----------------------------------------------------------
Total PK formation time     :      0.550u      0.017s      0.345w      6 calls
HF: Form H                  :      0.000u      0.017s      0.021w      6 calls
HF: Form S/X                :      0.033u      0.000s      0.002w      6 calls
HF: Guess                   :      0.000u      0.000s      0.001w      6 calls
HF: Form G                  :      0.067u      0.000s      0.035w    100 calls
| JK: D                     :      0.000u      0.000s      0.001w    100 calls
| JK: USO2AO                :      0.000u      0.000s      0.000w    100 calls
| JK: JK                    :      0.067u      0.000s      0.033w    100 calls
| | PK computes JK          :      0.067u      0.000s      0.032w    100 calls
| JK: AO2USO                :      0.000u      0.000s      0.000w    100 calls
HF: Form F                  :      0.000u      0.000s      0.003w    100 calls
HF: DIIS                    :      0.000u      0.017s      0.008w    100 calls
| DIISManager::add_entry    :      0.000u      0.017s      0.003w     28 calls
| DIISManager::extrapolate  :      0.000u      0.000s      0.002w     24 calls
| | bMatrix setup           :      0.000u      0.000s      0.001w     24 calls
| | bMatrix pseudoinverse   :      0.000u      0.000s      0.000w     24 calls
| | New vector              :      0.000u      0.000s      0.000w     24 calls
HF: Form C                  :      0.000u      0.000s      0.011w    100 calls
HF: Form D                  :      0.000u      0.000s      0.001w    100 calls
CIWave: CIvect write        :      0.000u      0.000s      0.000w      9 calls
CIWave: opdm                :      0.000u      0.000s      0.000w      4 calls
| CIWave: CIvect read       :      0.000u      0.000s      0.000w     28 calls
CIWave: CIvect read         :      0.000u      0.000s      0.000w      9 calls

***********************************************************

Host: shannon-book.local

Timers On : Thu Dec 13 15:53:39 2018
Timers Off: Thu Dec 13 15:53:43 2018

Wall Time:        3.60 seconds

Total PK formation time     :      0.533u      0.017s      0.331w      6 calls
HF: Form H                  :      0.000u      0.000s      0.020w      6 calls
HF: Form S/X                :      0.000u      0.000s      0.002w      6 calls
HF: Guess                   :      0.000u      0.000s      0.001w      6 calls
HF: Form G                  :      0.083u      0.000s      0.035w    100 calls
JK: D                       :      0.000u      0.000s      0.001w    100 calls
JK: USO2AO                  :      0.000u      0.000s      0.000w    100 calls
JK: JK                      :      0.083u      0.000s      0.033w    100 calls
PK computes JK              :      0.083u      0.000s      0.032w    100 calls
JK: AO2USO                  :      0.000u      0.000s      0.000w    100 calls
HF: Form F                  :      0.000u      0.000s      0.003w    100 calls
HF: DIIS                    :      0.000u      0.000s      0.006w    100 calls
DIISManager::add_entry      :      0.000u      0.000s      0.002w     28 calls
DIISManager::extrapolate    :      0.000u      0.000s      0.002w     24 calls
bMatrix setup               :      0.000u      0.000s      0.001w     24 calls
bMatrix pseudoinverse       :      0.000u      0.000s      0.000w     24 calls
New vector                  :      0.000u      0.000s      0.000w     24 calls
HF: Form C                  :      0.033u      0.000s      0.010w    100 calls
HF: Form D                  :      0.000u      0.000s      0.001w    100 calls
CIWave: CIvect write        :      0.000u      0.000s      0.000w      9 calls
CIWave: opdm                :      0.000u      0.000s      0.000w      4 calls
CIWave: CIvect read         :      0.000u      0.000s      0.000w     37 calls

-----------------------------------------------------------
Total PK formation time     :      0.533u      0.017s      0.331w      6 calls
HF: Form H                  :      0.000u      0.000s      0.020w      6 calls
HF: Form S/X                :      0.000u      0.000s      0.002w      6 calls
HF: Guess                   :      0.000u      0.000s      0.001w      6 calls
HF: Form G                  :      0.083u      0.000s      0.035w    100 calls
| JK: D                     :      0.000u      0.000s      0.001w    100 calls
| JK: USO2AO                :      0.000u      0.000s      0.000w    100 calls
| JK: JK                    :      0.083u      0.000s      0.033w    100 calls
| | PK computes JK          :      0.083u      0.000s      0.032w    100 calls
| JK: AO2USO                :      0.000u      0.000s      0.000w    100 calls
HF: Form F                  :      0.000u      0.000s      0.003w    100 calls
HF: DIIS                    :      0.000u      0.000s      0.006w    100 calls
| DIISManager::add_entry    :      0.000u      0.000s      0.002w     28 calls
| DIISManager::extrapolate  :      0.000u      0.000s      0.002w     24 calls
| | bMatrix setup           :      0.000u      0.000s      0.001w     24 calls
| | bMatrix pseudoinverse   :      0.000u      0.000s      0.000w     24 calls
| | New vector              :      0.000u      0.000s      0.000w     24 calls
HF: Form C                  :      0.033u      0.000s      0.010w    100 calls
HF: Form D                  :      0.000u      0.000s      0.001w    100 calls
CIWave: CIvect write        :      0.000u      0.000s      0.000w      9 calls
CIWave: opdm                :      0.000u      0.000s      0.000w      4 calls
| CIWave: CIvect read       :      0.000u      0.000s      0.000w     28 calls
CIWave: CIvect read         :      0.000u      0.000s      0.000w      9 calls

***********************************************************
