
Host: Spektor

Timers On : Tue Feb 26 12:24:27 2019
Timers Off: Tue Feb 26 12:24:27 2019

Wall Time:        0.53 seconds

DFH: initialize()           :      0.017u      0.000s      0.014w      1 calls
DFH: sparsity prep          :      0.017u      0.000s      0.003w      1 calls
DFH: AO Construction        :      0.000u      0.000s      0.000w      1 calls
DFH: AO-Met. Contraction    :      0.000u      0.000s      0.000w      1 calls
HF: Form H                  :      0.000u      0.000s      0.000w      1 calls
HF: Form S/X                :      0.000u      0.000s      0.000w      1 calls
HF: Guess                   :      0.000u      0.000s      0.000w      1 calls
HF: Form G                  :      0.000u      0.000s      0.007w      4 calls
JK: D                       :      0.000u      0.000s      0.000w      4 calls
JK: USO2AO                  :      0.000u      0.000s      0.000w      4 calls
JK: JK                      :      0.000u      0.000s      0.007w      4 calls
DFH: compute_JK()           :      0.000u      0.000s      0.000w      2 calls
DFH: Grabbing AOs           :      0.000u      0.000s      0.000w      2 calls
DFH: compute_J              :      0.000u      0.000s      0.000w      2 calls
DFH: compute_K              :      0.000u      0.000s      0.000w      2 calls
JK: AO2USO                  :      0.000u      0.000s      0.000w      4 calls
HF: Form F                  :      0.000u      0.000s      0.000w      4 calls
HF: DIIS                    :      0.000u      0.000s      0.000w      4 calls
DIISManager::add_entry      :      0.000u      0.000s      0.000w      4 calls
DIISManager::extrapolate    :      0.000u      0.000s      0.000w      3 calls
bMatrix setup               :      0.000u      0.000s      0.000w      3 calls
bMatrix pseudoinverse       :      0.000u      0.000s      0.000w      3 calls
New vector                  :      0.000u      0.000s      0.000w      3 calls
HF: Form C                  :      0.000u      0.000s      0.000w      4 calls
HF: Form D                  :      0.000u      0.000s      0.000w      4 calls

-----------------------------------------------------------
DFH: initialize()           :      0.017u      0.000s      0.014w      1 calls
| DFH: sparsity prep        :      0.017u      0.000s      0.003w      1 calls
| DFH: AO Construction      :      0.000u      0.000s      0.000w      1 calls
| DFH: AO-Met. Contraction  :      0.000u      0.000s      0.000w      1 calls
HF: Form H                  :      0.000u      0.000s      0.000w      1 calls
HF: Form S/X                :      0.000u      0.000s      0.000w      1 calls
HF: Guess                   :      0.000u      0.000s      0.000w      1 calls
HF: Form G                  :      0.000u      0.000s      0.007w      4 calls
| JK: D                     :      0.000u      0.000s      0.000w      4 calls
| JK: USO2AO                :      0.000u      0.000s      0.000w      4 calls
| JK: JK                    :      0.000u      0.000s      0.007w      4 calls
| | DFH: compute_JK()       :      0.000u      0.000s      0.000w      2 calls
| | | DFH: Grabbing AOs     :      0.000u      0.000s      0.000w      2 calls
| | | DFH: compute_J        :      0.000u      0.000s      0.000w      2 calls
| | | DFH: compute_K        :      0.000u      0.000s      0.000w      2 calls
| JK: AO2USO                :      0.000u      0.000s      0.000w      4 calls
HF: Form F                  :      0.000u      0.000s      0.000w      4 calls
HF: DIIS                    :      0.000u      0.000s      0.000w      4 calls
| DIISManager::add_entry    :      0.000u      0.000s      0.000w      4 calls
| DIISManager::extrapolate  :      0.000u      0.000s      0.000w      3 calls
| | bMatrix setup           :      0.000u      0.000s      0.000w      3 calls
| | bMatrix pseudoinverse   :      0.000u      0.000s      0.000w      3 calls
| | New vector              :      0.000u      0.000s      0.000w      3 calls
HF: Form C                  :      0.000u      0.000s      0.000w      4 calls
HF: Form D                  :      0.000u      0.000s      0.000w      4 calls

***********************************************************

Host: Spektor

Timers On : Tue Feb 26 12:25:45 2019
Timers Off: Tue Feb 26 12:25:46 2019

Wall Time:        0.36 seconds


-----------------------------------------------------------

***********************************************************

Host: Spektor

Timers On : Tue Feb 26 12:27:27 2019
Timers Off: Tue Feb 26 12:27:32 2019

Wall Time:        4.54 seconds

DFH: initialize()           :      0.267u      0.017s      0.178w      6 calls
DFH: sparsity prep          :      0.083u      0.000s      0.051w      6 calls
DFH: AO Construction        :      0.033u      0.000s      0.030w      6 calls
DFH: AO-Met. Contraction    :      0.000u      0.000s      0.004w      6 calls
HF: Form H                  :      0.017u      0.000s      0.007w      6 calls
HF: Form S/X                :      0.000u      0.000s      0.001w      6 calls
HF: Guess                   :      0.000u      0.000s      0.001w      6 calls
HF: Form G                  :      3.233u      0.000s      1.936w    148 calls
JK: D                       :      0.000u      0.000s      0.001w    148 calls
JK: USO2AO                  :      0.000u      0.000s      0.000w    148 calls
JK: JK                      :      3.233u      0.000s      1.933w    148 calls
DFH: compute_JK()           :      0.050u      0.000s      0.024w    100 calls
DFH: Grabbing AOs           :      0.000u      0.000s      0.000w    100 calls
DFH: compute_J              :      0.033u      0.000s      0.007w    100 calls
DFH: compute_K              :      0.017u      0.000s      0.016w    100 calls
JK: AO2USO                  :      0.000u      0.000s      0.000w    148 calls
HF: Form F                  :      0.000u      0.000s      0.003w    148 calls
HF: DIIS                    :      0.017u      0.000s      0.009w    148 calls
DIISManager::add_entry      :      0.000u      0.000s      0.003w     72 calls
DIISManager::extrapolate    :      0.017u      0.000s      0.004w     66 calls
bMatrix setup               :      0.000u      0.000s      0.001w     66 calls
bMatrix pseudoinverse       :      0.017u      0.000s      0.002w     66 calls
New vector                  :      0.000u      0.000s      0.001w     66 calls
HF: Form C                  :      0.017u      0.000s      0.009w    148 calls
HF: Form D                  :      0.000u      0.000s      0.001w    148 calls
CIWave: CIvect write        :      0.000u      0.000s      0.001w    156 calls
CIWave: CIvect read         :      0.000u      0.017s      0.002w    866 calls
CIWave: s2                  :      0.000u      0.000s      0.000w     16 calls
CIWave: s1                  :      0.000u      0.000s      0.000w     16 calls
CIWave: s3                  :      0.000u      0.000s      0.000w     16 calls
CIWave: s3_mt               :      0.000u      0.000s      0.000w    248 calls
CIWave: opdm                :      0.000u      0.017s      0.000w      4 calls

-----------------------------------------------------------
DFH: initialize()           :      0.267u      0.017s      0.178w      6 calls
| DFH: sparsity prep        :      0.083u      0.000s      0.051w      6 calls
| DFH: AO Construction      :      0.033u      0.000s      0.030w      6 calls
| DFH: AO-Met. Contraction  :      0.000u      0.000s      0.004w      6 calls
HF: Form H                  :      0.017u      0.000s      0.007w      6 calls
HF: Form S/X                :      0.000u      0.000s      0.001w      6 calls
HF: Guess                   :      0.000u      0.000s      0.001w      6 calls
HF: Form G                  :      3.233u      0.000s      1.936w    148 calls
| JK: D                     :      0.000u      0.000s      0.001w    148 calls
| JK: USO2AO                :      0.000u      0.000s      0.000w    148 calls
| JK: JK                    :      3.233u      0.000s      1.933w    148 calls
| | DFH: compute_JK()       :      0.050u      0.000s      0.024w    100 calls
| | | DFH: Grabbing AOs     :      0.000u      0.000s      0.000w    100 calls
| | | DFH: compute_J        :      0.033u      0.000s      0.007w    100 calls
| | | DFH: compute_K        :      0.017u      0.000s      0.016w    100 calls
| JK: AO2USO                :      0.000u      0.000s      0.000w    148 calls
HF: Form F                  :      0.000u      0.000s      0.003w    148 calls
HF: DIIS                    :      0.017u      0.000s      0.009w    148 calls
| DIISManager::add_entry    :      0.000u      0.000s      0.003w     72 calls
| DIISManager::extrapolate  :      0.017u      0.000s      0.004w     66 calls
| | bMatrix setup           :      0.000u      0.000s      0.001w     66 calls
| | bMatrix pseudoinverse   :      0.017u      0.000s      0.002w     66 calls
| | New vector              :      0.000u      0.000s      0.001w     66 calls
HF: Form C                  :      0.017u      0.000s      0.009w    148 calls
HF: Form D                  :      0.000u      0.000s      0.001w    148 calls
CIWave: CIvect write        :      0.000u      0.000s      0.001w    156 calls
CIWave: CIvect read         :      0.000u      0.000s      0.002w    838 calls
CIWave: s2                  :      0.000u      0.000s      0.000w     16 calls
CIWave: s1                  :      0.000u      0.000s      0.000w     16 calls
CIWave: s3                  :      0.000u      0.000s      0.000w     16 calls
| CIWave: s3_mt             :      0.000u      0.000s      0.000w    248 calls
CIWave: opdm                :      0.000u      0.017s      0.000w      4 calls
| CIWave: CIvect read       :      0.000u      0.017s      0.000w     28 calls

***********************************************************

Host: Spektor

Timers On : Wed Feb 27 12:15:05 2019
Timers Off: Wed Feb 27 12:15:10 2019

Wall Time:        4.89 seconds

DFH: initialize()           :      0.333u      0.000s      0.191w      6 calls
DFH: sparsity prep          :      0.083u      0.000s      0.054w      6 calls
DFH: AO Construction        :      0.050u      0.000s      0.030w      6 calls
DFH: AO-Met. Contraction    :      0.017u      0.000s      0.003w      6 calls
HF: Form H                  :      0.000u      0.000s      0.007w      6 calls
HF: Form S/X                :      0.000u      0.000s      0.001w      6 calls
HF: Guess                   :      0.000u      0.000s      0.001w      6 calls
HF: Form G                  :      3.167u      0.000s      1.931w    148 calls
JK: D                       :      0.033u      0.000s      0.001w    148 calls
JK: USO2AO                  :      0.000u      0.000s      0.000w    148 calls
JK: JK                      :      3.133u      0.000s      1.928w    148 calls
DFH: compute_JK()           :      0.017u      0.000s      0.024w    100 calls
DFH: Grabbing AOs           :      0.000u      0.000s      0.000w    100 calls
DFH: compute_J              :      0.000u      0.000s      0.007w    100 calls
DFH: compute_K              :      0.017u      0.000s      0.016w    100 calls
JK: AO2USO                  :      0.000u      0.000s      0.000w    148 calls
HF: Form F                  :      0.017u      0.000s      0.004w    148 calls
HF: DIIS                    :      0.000u      0.000s      0.010w    148 calls
DIISManager::add_entry      :      0.000u      0.000s      0.003w     72 calls
DIISManager::extrapolate    :      0.000u      0.000s      0.004w     66 calls
bMatrix setup               :      0.000u      0.000s      0.001w     66 calls
bMatrix pseudoinverse       :      0.000u      0.000s      0.002w     66 calls
New vector                  :      0.000u      0.000s      0.001w     66 calls
HF: Form C                  :      0.033u      0.000s      0.009w    148 calls
HF: Form D                  :      0.000u      0.000s      0.001w    148 calls
CIWave: CIvect write        :      0.000u      0.000s      0.001w    156 calls
CIWave: CIvect read         :      0.000u      0.000s      0.002w    866 calls
CIWave: s2                  :      0.017u      0.000s      0.000w     16 calls
CIWave: s1                  :      0.000u      0.000s      0.000w     16 calls
CIWave: s3                  :      0.000u      0.000s      0.000w     16 calls
CIWave: s3_mt               :      0.000u      0.000s      0.000w    248 calls
CIWave: opdm                :      0.000u      0.000s      0.000w      4 calls

-----------------------------------------------------------
DFH: initialize()           :      0.333u      0.000s      0.191w      6 calls
| DFH: sparsity prep        :      0.083u      0.000s      0.054w      6 calls
| DFH: AO Construction      :      0.050u      0.000s      0.030w      6 calls
| DFH: AO-Met. Contraction  :      0.017u      0.000s      0.003w      6 calls
HF: Form H                  :      0.000u      0.000s      0.007w      6 calls
HF: Form S/X                :      0.000u      0.000s      0.001w      6 calls
HF: Guess                   :      0.000u      0.000s      0.001w      6 calls
HF: Form G                  :      3.167u      0.000s      1.931w    148 calls
| JK: D                     :      0.033u      0.000s      0.001w    148 calls
| JK: USO2AO                :      0.000u      0.000s      0.000w    148 calls
| JK: JK                    :      3.133u      0.000s      1.928w    148 calls
| | DFH: compute_JK()       :      0.017u      0.000s      0.024w    100 calls
| | | DFH: Grabbing AOs     :      0.000u      0.000s      0.000w    100 calls
| | | DFH: compute_J        :      0.000u      0.000s      0.007w    100 calls
| | | DFH: compute_K        :      0.017u      0.000s      0.016w    100 calls
| JK: AO2USO                :      0.000u      0.000s      0.000w    148 calls
HF: Form F                  :      0.017u      0.000s      0.004w    148 calls
HF: DIIS                    :      0.000u      0.000s      0.010w    148 calls
| DIISManager::add_entry    :      0.000u      0.000s      0.003w     72 calls
| DIISManager::extrapolate  :      0.000u      0.000s      0.004w     66 calls
| | bMatrix setup           :      0.000u      0.000s      0.001w     66 calls
| | bMatrix pseudoinverse   :      0.000u      0.000s      0.002w     66 calls
| | New vector              :      0.000u      0.000s      0.001w     66 calls
HF: Form C                  :      0.033u      0.000s      0.009w    148 calls
HF: Form D                  :      0.000u      0.000s      0.001w    148 calls
CIWave: CIvect write        :      0.000u      0.000s      0.001w    156 calls
CIWave: CIvect read         :      0.000u      0.000s      0.002w    838 calls
CIWave: s2                  :      0.017u      0.000s      0.000w     16 calls
CIWave: s1                  :      0.000u      0.000s      0.000w     16 calls
CIWave: s3                  :      0.000u      0.000s      0.000w     16 calls
| CIWave: s3_mt             :      0.000u      0.000s      0.000w    248 calls
CIWave: opdm                :      0.000u      0.000s      0.000w      4 calls
| CIWave: CIvect read       :      0.000u      0.000s      0.000w     28 calls

***********************************************************

Host: Spektor

Timers On : Wed Feb 27 12:16:14 2019
Timers Off: Wed Feb 27 12:16:19 2019

Wall Time:        4.85 seconds

DFH: initialize()           :      0.350u      0.000s      0.204w      6 calls
DFH: sparsity prep          :      0.100u      0.000s      0.058w      6 calls
DFH: AO Construction        :      0.050u      0.000s      0.030w      6 calls
DFH: AO-Met. Contraction    :      0.050u      0.000s      0.004w      6 calls
HF: Form H                  :      0.000u      0.000s      0.006w      6 calls
HF: Form S/X                :      0.000u      0.000s      0.001w      6 calls
HF: Guess                   :      0.000u      0.000s      0.001w      6 calls
HF: Form G                  :      3.217u      0.000s      1.942w    148 calls
JK: D                       :      0.000u      0.000s      0.001w    148 calls
JK: USO2AO                  :      0.000u      0.000s      0.000w    148 calls
JK: JK                      :      3.217u      0.000s      1.939w    148 calls
DFH: compute_JK()           :      0.033u      0.000s      0.025w    100 calls
DFH: Grabbing AOs           :      0.000u      0.000s      0.000w    100 calls
DFH: compute_J              :      0.017u      0.000s      0.007w    100 calls
DFH: compute_K              :      0.017u      0.000s      0.017w    100 calls
JK: AO2USO                  :      0.000u      0.000s      0.000w    148 calls
HF: Form F                  :      0.000u      0.000s      0.004w    148 calls
HF: DIIS                    :      0.017u      0.000s      0.009w    148 calls
DIISManager::add_entry      :      0.000u      0.000s      0.003w     72 calls
DIISManager::extrapolate    :      0.017u      0.000s      0.004w     66 calls
bMatrix setup               :      0.000u      0.000s      0.001w     66 calls
bMatrix pseudoinverse       :      0.000u      0.000s      0.002w     66 calls
New vector                  :      0.000u      0.000s      0.001w     66 calls
HF: Form C                  :      0.017u      0.000s      0.009w    148 calls
HF: Form D                  :      0.000u      0.000s      0.001w    148 calls
CIWave: CIvect write        :      0.000u      0.000s      0.001w    156 calls
CIWave: CIvect read         :      0.000u      0.000s      0.002w    866 calls
CIWave: s2                  :      0.000u      0.000s      0.000w     16 calls
CIWave: s1                  :      0.000u      0.000s      0.000w     16 calls
CIWave: s3                  :      0.000u      0.000s      0.000w     16 calls
CIWave: s3_mt               :      0.000u      0.000s      0.000w    248 calls
CIWave: opdm                :      0.000u      0.000s      0.000w      4 calls

-----------------------------------------------------------
DFH: initialize()           :      0.350u      0.000s      0.204w      6 calls
| DFH: sparsity prep        :      0.100u      0.000s      0.058w      6 calls
| DFH: AO Construction      :      0.050u      0.000s      0.030w      6 calls
| DFH: AO-Met. Contraction  :      0.050u      0.000s      0.004w      6 calls
HF: Form H                  :      0.000u      0.000s      0.006w      6 calls
HF: Form S/X                :      0.000u      0.000s      0.001w      6 calls
HF: Guess                   :      0.000u      0.000s      0.001w      6 calls
HF: Form G                  :      3.217u      0.000s      1.942w    148 calls
| JK: D                     :      0.000u      0.000s      0.001w    148 calls
| JK: USO2AO                :      0.000u      0.000s      0.000w    148 calls
| JK: JK                    :      3.217u      0.000s      1.939w    148 calls
| | DFH: compute_JK()       :      0.033u      0.000s      0.025w    100 calls
| | | DFH: Grabbing AOs     :      0.000u      0.000s      0.000w    100 calls
| | | DFH: compute_J        :      0.017u      0.000s      0.007w    100 calls
| | | DFH: compute_K        :      0.017u      0.000s      0.017w    100 calls
| JK: AO2USO                :      0.000u      0.000s      0.000w    148 calls
HF: Form F                  :      0.000u      0.000s      0.004w    148 calls
HF: DIIS                    :      0.017u      0.000s      0.009w    148 calls
| DIISManager::add_entry    :      0.000u      0.000s      0.003w     72 calls
| DIISManager::extrapolate  :      0.017u      0.000s      0.004w     66 calls
| | bMatrix setup           :      0.000u      0.000s      0.001w     66 calls
| | bMatrix pseudoinverse   :      0.000u      0.000s      0.002w     66 calls
| | New vector              :      0.000u      0.000s      0.001w     66 calls
HF: Form C                  :      0.017u      0.000s      0.009w    148 calls
HF: Form D                  :      0.000u      0.000s      0.001w    148 calls
CIWave: CIvect write        :      0.000u      0.000s      0.001w    156 calls
CIWave: CIvect read         :      0.000u      0.000s      0.002w    838 calls
CIWave: s2                  :      0.000u      0.000s      0.000w     16 calls
CIWave: s1                  :      0.000u      0.000s      0.000w     16 calls
CIWave: s3                  :      0.000u      0.000s      0.000w     16 calls
| CIWave: s3_mt             :      0.000u      0.000s      0.000w    248 calls
CIWave: opdm                :      0.000u      0.000s      0.000w      4 calls
| CIWave: CIvect read       :      0.000u      0.000s      0.000w     28 calls

***********************************************************

Host: Spektor

Timers On : Wed Feb 27 12:16:44 2019
Timers Off: Wed Feb 27 12:16:49 2019

Wall Time:        4.84 seconds

DFH: initialize()           :      0.317u      0.000s      0.199w      6 calls
DFH: sparsity prep          :      0.100u      0.000s      0.058w      6 calls
DFH: AO Construction        :      0.033u      0.000s      0.030w      6 calls
DFH: AO-Met. Contraction    :      0.017u      0.000s      0.003w      6 calls
HF: Form H                  :      0.000u      0.000s      0.035w      6 calls
HF: Form S/X                :      0.017u      0.000s      0.001w      6 calls
HF: Guess                   :      0.000u      0.000s      0.001w      6 calls
HF: Form G                  :      3.200u      0.000s      1.940w    148 calls
JK: D                       :      0.000u      0.000s      0.001w    148 calls
JK: USO2AO                  :      0.000u      0.000s      0.000w    148 calls
JK: JK                      :      3.200u      0.000s      1.937w    148 calls
DFH: compute_JK()           :      0.000u      0.000s      0.025w    100 calls
DFH: Grabbing AOs           :      0.000u      0.000s      0.000w    100 calls
DFH: compute_J              :      0.000u      0.000s      0.007w    100 calls
DFH: compute_K              :      0.000u      0.000s      0.017w    100 calls
JK: AO2USO                  :      0.000u      0.000s      0.000w    148 calls
HF: Form F                  :      0.000u      0.000s      0.004w    148 calls
HF: DIIS                    :      0.017u      0.000s      0.010w    148 calls
DIISManager::add_entry      :      0.017u      0.000s      0.003w     72 calls
DIISManager::extrapolate    :      0.000u      0.000s      0.005w     66 calls
bMatrix setup               :      0.000u      0.000s      0.001w     66 calls
bMatrix pseudoinverse       :      0.000u      0.000s      0.002w     66 calls
New vector                  :      0.000u      0.000s      0.001w     66 calls
HF: Form C                  :      0.017u      0.000s      0.009w    148 calls
HF: Form D                  :      0.000u      0.000s      0.001w    148 calls
CIWave: CIvect write        :      0.000u      0.000s      0.001w    156 calls
CIWave: CIvect read         :      0.000u      0.000s      0.002w    866 calls
CIWave: s2                  :      0.000u      0.000s      0.000w     16 calls
CIWave: s1                  :      0.000u      0.000s      0.000w     16 calls
CIWave: s3                  :      0.000u      0.000s      0.000w     16 calls
CIWave: s3_mt               :      0.000u      0.000s      0.000w    248 calls
CIWave: opdm                :      0.000u      0.000s      0.000w      4 calls

-----------------------------------------------------------
DFH: initialize()           :      0.317u      0.000s      0.199w      6 calls
| DFH: sparsity prep        :      0.100u      0.000s      0.058w      6 calls
| DFH: AO Construction      :      0.033u      0.000s      0.030w      6 calls
| DFH: AO-Met. Contraction  :      0.017u      0.000s      0.003w      6 calls
HF: Form H                  :      0.000u      0.000s      0.035w      6 calls
HF: Form S/X                :      0.017u      0.000s      0.001w      6 calls
HF: Guess                   :      0.000u      0.000s      0.001w      6 calls
HF: Form G                  :      3.200u      0.000s      1.940w    148 calls
| JK: D                     :      0.000u      0.000s      0.001w    148 calls
| JK: USO2AO                :      0.000u      0.000s      0.000w    148 calls
| JK: JK                    :      3.200u      0.000s      1.937w    148 calls
| | DFH: compute_JK()       :      0.000u      0.000s      0.025w    100 calls
| | | DFH: Grabbing AOs     :      0.000u      0.000s      0.000w    100 calls
| | | DFH: compute_J        :      0.000u      0.000s      0.007w    100 calls
| | | DFH: compute_K        :      0.000u      0.000s      0.017w    100 calls
| JK: AO2USO                :      0.000u      0.000s      0.000w    148 calls
HF: Form F                  :      0.000u      0.000s      0.004w    148 calls
HF: DIIS                    :      0.017u      0.000s      0.010w    148 calls
| DIISManager::add_entry    :      0.017u      0.000s      0.003w     72 calls
| DIISManager::extrapolate  :      0.000u      0.000s      0.005w     66 calls
| | bMatrix setup           :      0.000u      0.000s      0.001w     66 calls
| | bMatrix pseudoinverse   :      0.000u      0.000s      0.002w     66 calls
| | New vector              :      0.000u      0.000s      0.001w     66 calls
HF: Form C                  :      0.017u      0.000s      0.009w    148 calls
HF: Form D                  :      0.000u      0.000s      0.001w    148 calls
CIWave: CIvect write        :      0.000u      0.000s      0.001w    156 calls
CIWave: CIvect read         :      0.000u      0.000s      0.002w    838 calls
CIWave: s2                  :      0.000u      0.000s      0.000w     16 calls
CIWave: s1                  :      0.000u      0.000s      0.000w     16 calls
CIWave: s3                  :      0.000u      0.000s      0.000w     16 calls
| CIWave: s3_mt             :      0.000u      0.000s      0.000w    248 calls
CIWave: opdm                :      0.000u      0.000s      0.000w      4 calls
| CIWave: CIvect read       :      0.000u      0.000s      0.000w     28 calls

***********************************************************

Host: Spektor

Timers On : Wed Feb 27 12:18:20 2019
Timers Off: Wed Feb 27 12:18:25 2019

Wall Time:        4.89 seconds

DFH: initialize()           :      0.333u      0.000s      0.205w      6 calls
DFH: sparsity prep          :      0.100u      0.000s      0.057w      6 calls
DFH: AO Construction        :      0.050u      0.000s      0.030w      6 calls
DFH: AO-Met. Contraction    :      0.000u      0.000s      0.004w      6 calls
HF: Form H                  :      0.000u      0.000s      0.007w      6 calls
HF: Form S/X                :      0.000u      0.000s      0.001w      6 calls
HF: Guess                   :      0.000u      0.000s      0.001w      6 calls
HF: Form G                  :      3.183u      0.000s      1.937w    148 calls
JK: D                       :      0.000u      0.000s      0.001w    148 calls
JK: USO2AO                  :      0.000u      0.000s      0.000w    148 calls
JK: JK                      :      3.183u      0.000s      1.934w    148 calls
DFH: compute_JK()           :      0.017u      0.000s      0.024w    100 calls
DFH: Grabbing AOs           :      0.000u      0.000s      0.000w    100 calls
DFH: compute_J              :      0.000u      0.000s      0.007w    100 calls
DFH: compute_K              :      0.017u      0.000s      0.016w    100 calls
JK: AO2USO                  :      0.000u      0.000s      0.000w    148 calls
HF: Form F                  :      0.000u      0.000s      0.004w    148 calls
HF: DIIS                    :      0.033u      0.000s      0.010w    148 calls
DIISManager::add_entry      :      0.000u      0.000s      0.003w     72 calls
DIISManager::extrapolate    :      0.000u      0.000s      0.004w     66 calls
bMatrix setup               :      0.000u      0.000s      0.001w     66 calls
bMatrix pseudoinverse       :      0.000u      0.000s      0.002w     66 calls
New vector                  :      0.000u      0.000s      0.001w     66 calls
HF: Form C                  :      0.017u      0.000s      0.009w    148 calls
HF: Form D                  :      0.000u      0.000s      0.001w    148 calls
CIWave: CIvect write        :      0.000u      0.000s      0.001w    156 calls
CIWave: CIvect read         :      0.000u      0.000s      0.002w    866 calls
CIWave: s2                  :      0.000u      0.000s      0.000w     16 calls
CIWave: s1                  :      0.000u      0.000s      0.000w     16 calls
CIWave: s3                  :      0.000u      0.000s      0.000w     16 calls
CIWave: s3_mt               :      0.000u      0.000s      0.000w    248 calls
CIWave: opdm                :      0.000u      0.000s      0.000w      4 calls

-----------------------------------------------------------
DFH: initialize()           :      0.333u      0.000s      0.205w      6 calls
| DFH: sparsity prep        :      0.100u      0.000s      0.057w      6 calls
| DFH: AO Construction      :      0.050u      0.000s      0.030w      6 calls
| DFH: AO-Met. Contraction  :      0.000u      0.000s      0.004w      6 calls
HF: Form H                  :      0.000u      0.000s      0.007w      6 calls
HF: Form S/X                :      0.000u      0.000s      0.001w      6 calls
HF: Guess                   :      0.000u      0.000s      0.001w      6 calls
HF: Form G                  :      3.183u      0.000s      1.937w    148 calls
| JK: D                     :      0.000u      0.000s      0.001w    148 calls
| JK: USO2AO                :      0.000u      0.000s      0.000w    148 calls
| JK: JK                    :      3.183u      0.000s      1.934w    148 calls
| | DFH: compute_JK()       :      0.017u      0.000s      0.024w    100 calls
| | | DFH: Grabbing AOs     :      0.000u      0.000s      0.000w    100 calls
| | | DFH: compute_J        :      0.000u      0.000s      0.007w    100 calls
| | | DFH: compute_K        :      0.017u      0.000s      0.016w    100 calls
| JK: AO2USO                :      0.000u      0.000s      0.000w    148 calls
HF: Form F                  :      0.000u      0.000s      0.004w    148 calls
HF: DIIS                    :      0.033u      0.000s      0.010w    148 calls
| DIISManager::add_entry    :      0.000u      0.000s      0.003w     72 calls
| DIISManager::extrapolate  :      0.000u      0.000s      0.004w     66 calls
| | bMatrix setup           :      0.000u      0.000s      0.001w     66 calls
| | bMatrix pseudoinverse   :      0.000u      0.000s      0.002w     66 calls
| | New vector              :      0.000u      0.000s      0.001w     66 calls
HF: Form C                  :      0.017u      0.000s      0.009w    148 calls
HF: Form D                  :      0.000u      0.000s      0.001w    148 calls
CIWave: CIvect write        :      0.000u      0.000s      0.001w    156 calls
CIWave: CIvect read         :      0.000u      0.000s      0.002w    838 calls
CIWave: s2                  :      0.000u      0.000s      0.000w     16 calls
CIWave: s1                  :      0.000u      0.000s      0.000w     16 calls
CIWave: s3                  :      0.000u      0.000s      0.000w     16 calls
| CIWave: s3_mt             :      0.000u      0.000s      0.000w    248 calls
CIWave: opdm                :      0.000u      0.000s      0.000w      4 calls
| CIWave: CIvect read       :      0.000u      0.000s      0.000w     28 calls

***********************************************************

Host: Spektor

Timers On : Wed Feb 27 12:19:06 2019
Timers Off: Wed Feb 27 12:19:11 2019

Wall Time:        4.55 seconds

DFH: initialize()           :      0.300u      0.000s      0.179w      6 calls
DFH: sparsity prep          :      0.100u      0.000s      0.051w      6 calls
DFH: AO Construction        :      0.017u      0.000s      0.029w      6 calls
DFH: AO-Met. Contraction    :      0.017u      0.000s      0.003w      6 calls
HF: Form H                  :      0.000u      0.000s      0.007w      6 calls
HF: Form S/X                :      0.000u      0.000s      0.001w      6 calls
HF: Guess                   :      0.000u      0.000s      0.001w      6 calls
HF: Form G                  :      3.250u      0.000s      1.938w    148 calls
JK: D                       :      0.000u      0.000s      0.001w    148 calls
JK: USO2AO                  :      0.000u      0.000s      0.000w    148 calls
JK: JK                      :      3.250u      0.000s      1.935w    148 calls
DFH: compute_JK()           :      0.050u      0.000s      0.024w    100 calls
DFH: Grabbing AOs           :      0.000u      0.000s      0.000w    100 calls
DFH: compute_J              :      0.000u      0.000s      0.007w    100 calls
DFH: compute_K              :      0.050u      0.000s      0.017w    100 calls
JK: AO2USO                  :      0.000u      0.000s      0.000w    148 calls
HF: Form F                  :      0.000u      0.000s      0.004w    148 calls
HF: DIIS                    :      0.000u      0.000s      0.010w    148 calls
DIISManager::add_entry      :      0.000u      0.000s      0.003w     72 calls
DIISManager::extrapolate    :      0.000u      0.000s      0.005w     66 calls
bMatrix setup               :      0.000u      0.000s      0.001w     66 calls
bMatrix pseudoinverse       :      0.000u      0.000s      0.002w     66 calls
New vector                  :      0.000u      0.000s      0.001w     66 calls
HF: Form C                  :      0.033u      0.000s      0.009w    148 calls
HF: Form D                  :      0.000u      0.000s      0.001w    148 calls
CIWave: CIvect write        :      0.000u      0.000s      0.001w    156 calls
CIWave: CIvect read         :      0.017u      0.000s      0.002w    866 calls
CIWave: s2                  :      0.000u      0.000s      0.000w     16 calls
CIWave: s1                  :      0.000u      0.000s      0.000w     16 calls
CIWave: s3                  :      0.000u      0.000s      0.000w     16 calls
CIWave: s3_mt               :      0.000u      0.000s      0.000w    248 calls
CIWave: opdm                :      0.000u      0.000s      0.000w      4 calls

-----------------------------------------------------------
DFH: initialize()           :      0.300u      0.000s      0.179w      6 calls
| DFH: sparsity prep        :      0.100u      0.000s      0.051w      6 calls
| DFH: AO Construction      :      0.017u      0.000s      0.029w      6 calls
| DFH: AO-Met. Contraction  :      0.017u      0.000s      0.003w      6 calls
HF: Form H                  :      0.000u      0.000s      0.007w      6 calls
HF: Form S/X                :      0.000u      0.000s      0.001w      6 calls
HF: Guess                   :      0.000u      0.000s      0.001w      6 calls
HF: Form G                  :      3.250u      0.000s      1.938w    148 calls
| JK: D                     :      0.000u      0.000s      0.001w    148 calls
| JK: USO2AO                :      0.000u      0.000s      0.000w    148 calls
| JK: JK                    :      3.250u      0.000s      1.935w    148 calls
| | DFH: compute_JK()       :      0.050u      0.000s      0.024w    100 calls
| | | DFH: Grabbing AOs     :      0.000u      0.000s      0.000w    100 calls
| | | DFH: compute_J        :      0.000u      0.000s      0.007w    100 calls
| | | DFH: compute_K        :      0.050u      0.000s      0.017w    100 calls
| JK: AO2USO                :      0.000u      0.000s      0.000w    148 calls
HF: Form F                  :      0.000u      0.000s      0.004w    148 calls
HF: DIIS                    :      0.000u      0.000s      0.010w    148 calls
| DIISManager::add_entry    :      0.000u      0.000s      0.003w     72 calls
| DIISManager::extrapolate  :      0.000u      0.000s      0.005w     66 calls
| | bMatrix setup           :      0.000u      0.000s      0.001w     66 calls
| | bMatrix pseudoinverse   :      0.000u      0.000s      0.002w     66 calls
| | New vector              :      0.000u      0.000s      0.001w     66 calls
HF: Form C                  :      0.033u      0.000s      0.009w    148 calls
HF: Form D                  :      0.000u      0.000s      0.001w    148 calls
CIWave: CIvect write        :      0.000u      0.000s      0.001w    156 calls
CIWave: CIvect read         :      0.017u      0.000s      0.002w    838 calls
CIWave: s2                  :      0.000u      0.000s      0.000w     16 calls
CIWave: s1                  :      0.000u      0.000s      0.000w     16 calls
CIWave: s3                  :      0.000u      0.000s      0.000w     16 calls
| CIWave: s3_mt             :      0.000u      0.000s      0.000w    248 calls
CIWave: opdm                :      0.000u      0.000s      0.000w      4 calls
| CIWave: CIvect read       :      0.000u      0.000s      0.000w     28 calls

***********************************************************

Host: Spektor

Timers On : Wed Feb 27 12:19:14 2019
Timers Off: Wed Feb 27 12:19:54 2019

Wall Time:       40.14 seconds

DFH: initialize()           :      0.200u      0.000s      0.118w      4 calls
DFH: sparsity prep          :      0.067u      0.000s      0.034w      4 calls
DFH: AO Construction        :      0.017u      0.000s      0.020w      4 calls
DFH: AO-Met. Contraction    :      0.000u      0.000s      0.002w      4 calls
HF: Form H                  :      0.017u      0.000s      0.005w      6 calls
HF: Form S/X                :      0.000u      0.000s      0.001w      6 calls
HF: Guess                   :      0.000u      0.000s      0.001w      6 calls
HF: Form G                  :      2.117u      0.000s      1.261w    132 calls
JK: D                       :      0.000u      0.000s      0.000w    132 calls
JK: USO2AO                  :      0.000u      0.000s      0.000w    132 calls
JK: JK                      :      2.117u      0.000s      1.258w    132 calls
DFH: compute_JK()           :      0.050u      0.000s      0.016w     66 calls
DFH: Grabbing AOs           :      0.000u      0.000s      0.000w     66 calls
DFH: compute_J              :      0.000u      0.000s      0.005w     66 calls
DFH: compute_K              :      0.050u      0.000s      0.011w     66 calls
PK computes JK              :      0.017u      0.000s      0.003w     34 calls
JK: AO2USO                  :      0.000u      0.000s      0.000w    132 calls
HF: Form F                  :      0.000u      0.000s      0.003w    132 calls
HF: DIIS                    :      0.000u      0.000s      0.008w    132 calls
DIISManager::add_entry      :      0.000u      0.000s      0.002w     60 calls
DIISManager::extrapolate    :      0.000u      0.000s      0.004w     56 calls
bMatrix setup               :      0.000u      0.000s      0.001w     56 calls
bMatrix pseudoinverse       :      0.000u      0.000s      0.001w     56 calls
New vector                  :      0.000u      0.000s      0.001w     56 calls
HF: Form C                  :      0.017u      0.000s      0.008w    132 calls
HF: Form D                  :      0.000u      0.000s      0.001w    132 calls
CIWave: CIvect write        :      0.017u      0.000s      0.003w    460 calls
CIWave: CIvect read         :      0.033u      0.017s      0.017w   6329 calls
CIWave: s2                  :      0.017u      0.017s      0.047w    210 calls
CIWave: s1                  :      0.000u      0.000s      0.003w    378 calls
CIWave: s3                  :      0.183u      0.050s      0.120w    378 calls
CIWave: s3_mt               :      0.117u      0.033s      0.088w  28510 calls
CIWave: opdm                :      0.000u      0.000s      0.002w      4 calls
Total PK formation time     :      0.167u      0.000s      0.099w      2 calls

-----------------------------------------------------------
DFH: initialize()           :      0.200u      0.000s      0.118w      4 calls
| DFH: sparsity prep        :      0.067u      0.000s      0.034w      4 calls
| DFH: AO Construction      :      0.017u      0.000s      0.020w      4 calls
| DFH: AO-Met. Contraction  :      0.000u      0.000s      0.002w      4 calls
HF: Form H                  :      0.017u      0.000s      0.005w      6 calls
HF: Form S/X                :      0.000u      0.000s      0.001w      6 calls
HF: Guess                   :      0.000u      0.000s      0.001w      6 calls
HF: Form G                  :      2.117u      0.000s      1.261w    132 calls
| JK: D                     :      0.000u      0.000s      0.000w    132 calls
| JK: USO2AO                :      0.000u      0.000s      0.000w    132 calls
| JK: JK                    :      2.117u      0.000s      1.258w    132 calls
| | DFH: compute_JK()       :      0.050u      0.000s      0.016w     66 calls
| | | DFH: Grabbing AOs     :      0.000u      0.000s      0.000w     66 calls
| | | DFH: compute_J        :      0.000u      0.000s      0.005w     66 calls
| | | DFH: compute_K        :      0.050u      0.000s      0.011w     66 calls
| | PK computes JK          :      0.017u      0.000s      0.003w     34 calls
| JK: AO2USO                :      0.000u      0.000s      0.000w    132 calls
HF: Form F                  :      0.000u      0.000s      0.003w    132 calls
HF: DIIS                    :      0.000u      0.000s      0.008w    132 calls
| DIISManager::add_entry    :      0.000u      0.000s      0.002w     60 calls
| DIISManager::extrapolate  :      0.000u      0.000s      0.004w     56 calls
| | bMatrix setup           :      0.000u      0.000s      0.001w     56 calls
| | bMatrix pseudoinverse   :      0.000u      0.000s      0.001w     56 calls
| | New vector              :      0.000u      0.000s      0.001w     56 calls
HF: Form C                  :      0.017u      0.000s      0.008w    132 calls
HF: Form D                  :      0.000u      0.000s      0.001w    132 calls
CIWave: CIvect write        :      0.017u      0.000s      0.003w    460 calls
CIWave: CIvect read         :      0.033u      0.017s      0.017w   6301 calls
CIWave: s2                  :      0.017u      0.017s      0.047w    210 calls
CIWave: s1                  :      0.000u      0.000s      0.003w    378 calls
CIWave: s3                  :      0.183u      0.050s      0.120w    378 calls
| CIWave: s3_mt             :      0.117u      0.033s      0.088w  28510 calls
CIWave: opdm                :      0.000u      0.000s      0.002w      4 calls
| CIWave: CIvect read       :      0.000u      0.000s      0.000w     28 calls
Total PK formation time     :      0.167u      0.000s      0.099w      2 calls

***********************************************************

Host: Spektor

Timers On : Wed Feb 27 12:20:44 2019
Timers Off: Wed Feb 27 12:21:49 2019

Wall Time:       64.06 seconds

DFH: initialize()           :      0.200u      0.000s      0.119w      4 calls
DFH: sparsity prep          :      0.050u      0.000s      0.034w      4 calls
DFH: AO Construction        :      0.033u      0.000s      0.019w      4 calls
DFH: AO-Met. Contraction    :      0.000u      0.000s      0.002w      4 calls
HF: Form H                  :      0.000u      0.000s      0.007w      6 calls
HF: Form S/X                :      0.000u      0.000s      0.001w      6 calls
HF: Guess                   :      0.000u      0.000s      0.001w      6 calls
HF: Form G                  :      2.133u      0.017s      1.264w    132 calls
JK: D                       :      0.000u      0.000s      0.001w    132 calls
JK: USO2AO                  :      0.000u      0.000s      0.000w    132 calls
JK: JK                      :      2.133u      0.017s      1.261w    132 calls
DFH: compute_JK()           :      0.033u      0.017s      0.016w     66 calls
DFH: Grabbing AOs           :      0.000u      0.000s      0.000w     66 calls
DFH: compute_J              :      0.000u      0.017s      0.005w     66 calls
DFH: compute_K              :      0.033u      0.000s      0.011w     66 calls
PK computes JK              :      0.000u      0.000s      0.003w     34 calls
JK: AO2USO                  :      0.000u      0.000s      0.000w    132 calls
HF: Form F                  :      0.000u      0.000s      0.003w    132 calls
HF: DIIS                    :      0.000u      0.000s      0.008w    132 calls
DIISManager::add_entry      :      0.000u      0.000s      0.002w     60 calls
DIISManager::extrapolate    :      0.000u      0.000s      0.004w     56 calls
bMatrix setup               :      0.000u      0.000s      0.001w     56 calls
bMatrix pseudoinverse       :      0.000u      0.000s      0.001w     56 calls
New vector                  :      0.000u      0.000s      0.001w     56 calls
HF: Form C                  :      0.000u      0.017s      0.008w    132 calls
HF: Form D                  :      0.000u      0.000s      0.001w    132 calls
CIWave: CIvect write        :      0.000u      0.000s      0.003w    460 calls
CIWave: CIvect read         :      0.017u      0.000s      0.017w   6329 calls
CIWave: s2                  :      0.050u      0.000s      0.047w    210 calls
CIWave: s1                  :      0.000u      0.000s      0.003w    378 calls
CIWave: s3                  :      0.183u      0.050s      0.118w    378 calls
CIWave: s3_mt               :      0.117u      0.017s      0.087w  28510 calls
CIWave: opdm                :      0.000u      0.000s      0.003w      4 calls
Total PK formation time     :      0.167u      0.000s      0.100w      2 calls

-----------------------------------------------------------
DFH: initialize()           :      0.200u      0.000s      0.119w      4 calls
| DFH: sparsity prep        :      0.050u      0.000s      0.034w      4 calls
| DFH: AO Construction      :      0.033u      0.000s      0.019w      4 calls
| DFH: AO-Met. Contraction  :      0.000u      0.000s      0.002w      4 calls
HF: Form H                  :      0.000u      0.000s      0.007w      6 calls
HF: Form S/X                :      0.000u      0.000s      0.001w      6 calls
HF: Guess                   :      0.000u      0.000s      0.001w      6 calls
HF: Form G                  :      2.133u      0.017s      1.264w    132 calls
| JK: D                     :      0.000u      0.000s      0.001w    132 calls
| JK: USO2AO                :      0.000u      0.000s      0.000w    132 calls
| JK: JK                    :      2.133u      0.017s      1.261w    132 calls
| | DFH: compute_JK()       :      0.033u      0.017s      0.016w     66 calls
| | | DFH: Grabbing AOs     :      0.000u      0.000s      0.000w     66 calls
| | | DFH: compute_J        :      0.000u      0.017s      0.005w     66 calls
| | | DFH: compute_K        :      0.033u      0.000s      0.011w     66 calls
| | PK computes JK          :      0.000u      0.000s      0.003w     34 calls
| JK: AO2USO                :      0.000u      0.000s      0.000w    132 calls
HF: Form F                  :      0.000u      0.000s      0.003w    132 calls
HF: DIIS                    :      0.000u      0.000s      0.008w    132 calls
| DIISManager::add_entry    :      0.000u      0.000s      0.002w     60 calls
| DIISManager::extrapolate  :      0.000u      0.000s      0.004w     56 calls
| | bMatrix setup           :      0.000u      0.000s      0.001w     56 calls
| | bMatrix pseudoinverse   :      0.000u      0.000s      0.001w     56 calls
| | New vector              :      0.000u      0.000s      0.001w     56 calls
HF: Form C                  :      0.000u      0.017s      0.008w    132 calls
HF: Form D                  :      0.000u      0.000s      0.001w    132 calls
CIWave: CIvect write        :      0.000u      0.000s      0.003w    460 calls
CIWave: CIvect read         :      0.017u      0.000s      0.017w   6301 calls
CIWave: s2                  :      0.050u      0.000s      0.047w    210 calls
CIWave: s1                  :      0.000u      0.000s      0.003w    378 calls
CIWave: s3                  :      0.183u      0.050s      0.118w    378 calls
| CIWave: s3_mt             :      0.117u      0.017s      0.087w  28510 calls
CIWave: opdm                :      0.000u      0.000s      0.003w      4 calls
| CIWave: CIvect read       :      0.000u      0.000s      0.000w     28 calls
Total PK formation time     :      0.167u      0.000s      0.100w      2 calls

***********************************************************

Host: Spektor

Timers On : Wed Feb 27 12:22:46 2019
Timers Off: Wed Feb 27 12:23:46 2019

Wall Time:       59.75 seconds

DFH: initialize()           :      0.200u      0.017s      0.119w      4 calls
DFH: sparsity prep          :      0.050u      0.000s      0.034w      4 calls
DFH: AO Construction        :      0.050u      0.000s      0.020w      4 calls
DFH: AO-Met. Contraction    :      0.000u      0.000s      0.002w      4 calls
HF: Form H                  :      0.000u      0.000s      0.006w      6 calls
HF: Form S/X                :      0.000u      0.000s      0.001w      6 calls
HF: Guess                   :      0.000u      0.000s      0.001w      6 calls
HF: Form G                  :      2.117u      0.000s      1.270w    132 calls
JK: D                       :      0.000u      0.000s      0.000w    132 calls
JK: USO2AO                  :      0.000u      0.000s      0.000w    132 calls
JK: JK                      :      2.117u      0.000s      1.267w    132 calls
DFH: compute_JK()           :      0.017u      0.000s      0.016w     66 calls
DFH: Grabbing AOs           :      0.000u      0.000s      0.000w     66 calls
DFH: compute_J              :      0.000u      0.000s      0.005w     66 calls
DFH: compute_K              :      0.017u      0.000s      0.011w     66 calls
PK computes JK              :      0.000u      0.000s      0.003w     34 calls
JK: AO2USO                  :      0.000u      0.000s      0.000w    132 calls
HF: Form F                  :      0.033u      0.000s      0.003w    132 calls
HF: DIIS                    :      0.000u      0.000s      0.008w    132 calls
DIISManager::add_entry      :      0.000u      0.000s      0.002w     60 calls
DIISManager::extrapolate    :      0.000u      0.000s      0.004w     56 calls
bMatrix setup               :      0.000u      0.000s      0.001w     56 calls
bMatrix pseudoinverse       :      0.000u      0.000s      0.001w     56 calls
New vector                  :      0.000u      0.000s      0.001w     56 calls
HF: Form C                  :      0.000u      0.000s      0.008w    132 calls
HF: Form D                  :      0.000u      0.000s      0.001w    132 calls
CIWave: CIvect write        :      0.000u      0.000s      0.003w    460 calls
CIWave: CIvect read         :      0.000u      0.017s      0.017w   6329 calls
CIWave: s2                  :      0.017u      0.000s      0.047w    210 calls
CIWave: s1                  :      0.000u      0.000s      0.003w    378 calls
CIWave: s3                  :      0.183u      0.100s      0.119w    378 calls
CIWave: s3_mt               :      0.183u      0.100s      0.088w  28510 calls
CIWave: opdm                :      0.000u      0.000s      0.003w      4 calls
Total PK formation time     :      0.167u      0.000s      0.100w      2 calls

-----------------------------------------------------------
DFH: initialize()           :      0.200u      0.017s      0.119w      4 calls
| DFH: sparsity prep        :      0.050u      0.000s      0.034w      4 calls
| DFH: AO Construction      :      0.050u      0.000s      0.020w      4 calls
| DFH: AO-Met. Contraction  :      0.000u      0.000s      0.002w      4 calls
HF: Form H                  :      0.000u      0.000s      0.006w      6 calls
HF: Form S/X                :      0.000u      0.000s      0.001w      6 calls
HF: Guess                   :      0.000u      0.000s      0.001w      6 calls
HF: Form G                  :      2.117u      0.000s      1.270w    132 calls
| JK: D                     :      0.000u      0.000s      0.000w    132 calls
| JK: USO2AO                :      0.000u      0.000s      0.000w    132 calls
| JK: JK                    :      2.117u      0.000s      1.267w    132 calls
| | DFH: compute_JK()       :      0.017u      0.000s      0.016w     66 calls
| | | DFH: Grabbing AOs     :      0.000u      0.000s      0.000w     66 calls
| | | DFH: compute_J        :      0.000u      0.000s      0.005w     66 calls
| | | DFH: compute_K        :      0.017u      0.000s      0.011w     66 calls
| | PK computes JK          :      0.000u      0.000s      0.003w     34 calls
| JK: AO2USO                :      0.000u      0.000s      0.000w    132 calls
HF: Form F                  :      0.033u      0.000s      0.003w    132 calls
HF: DIIS                    :      0.000u      0.000s      0.008w    132 calls
| DIISManager::add_entry    :      0.000u      0.000s      0.002w     60 calls
| DIISManager::extrapolate  :      0.000u      0.000s      0.004w     56 calls
| | bMatrix setup           :      0.000u      0.000s      0.001w     56 calls
| | bMatrix pseudoinverse   :      0.000u      0.000s      0.001w     56 calls
| | New vector              :      0.000u      0.000s      0.001w     56 calls
HF: Form C                  :      0.000u      0.000s      0.008w    132 calls
HF: Form D                  :      0.000u      0.000s      0.001w    132 calls
CIWave: CIvect write        :      0.000u      0.000s      0.003w    460 calls
CIWave: CIvect read         :      0.000u      0.017s      0.017w   6301 calls
CIWave: s2                  :      0.017u      0.000s      0.047w    210 calls
CIWave: s1                  :      0.000u      0.000s      0.003w    378 calls
CIWave: s3                  :      0.183u      0.100s      0.119w    378 calls
| CIWave: s3_mt             :      0.183u      0.100s      0.088w  28510 calls
CIWave: opdm                :      0.000u      0.000s      0.003w      4 calls
| CIWave: CIvect read       :      0.000u      0.000s      0.000w     28 calls
Total PK formation time     :      0.167u      0.000s      0.100w      2 calls

***********************************************************

Host: Spektor

Timers On : Wed Feb 27 12:48:02 2019
Timers Off: Wed Feb 27 12:49:01 2019

Wall Time:       59.46 seconds

DFH: initialize()           :      0.200u      0.000s      0.120w      4 calls
DFH: sparsity prep          :      0.067u      0.000s      0.034w      4 calls
DFH: AO Construction        :      0.033u      0.000s      0.020w      4 calls
DFH: AO-Met. Contraction    :      0.000u      0.000s      0.002w      4 calls
HF: Form H                  :      0.000u      0.000s      0.006w      6 calls
HF: Form S/X                :      0.000u      0.000s      0.001w      6 calls
HF: Guess                   :      0.000u      0.000s      0.001w      6 calls
HF: Form G                  :      2.083u      0.000s      1.265w    132 calls
JK: D                       :      0.000u      0.000s      0.000w    132 calls
JK: USO2AO                  :      0.000u      0.000s      0.000w    132 calls
JK: JK                      :      2.067u      0.000s      1.262w    132 calls
DFH: compute_JK()           :      0.017u      0.000s      0.016w     66 calls
DFH: Grabbing AOs           :      0.000u      0.000s      0.000w     66 calls
DFH: compute_J              :      0.000u      0.000s      0.005w     66 calls
DFH: compute_K              :      0.017u      0.000s      0.011w     66 calls
PK computes JK              :      0.000u      0.000s      0.003w     34 calls
JK: AO2USO                  :      0.000u      0.000s      0.000w    132 calls
HF: Form F                  :      0.000u      0.000s      0.003w    132 calls
HF: DIIS                    :      0.033u      0.000s      0.008w    132 calls
DIISManager::add_entry      :      0.017u      0.000s      0.002w     60 calls
DIISManager::extrapolate    :      0.017u      0.000s      0.004w     56 calls
bMatrix setup               :      0.000u      0.000s      0.001w     56 calls
bMatrix pseudoinverse       :      0.000u      0.000s      0.001w     56 calls
New vector                  :      0.017u      0.000s      0.001w     56 calls
HF: Form C                  :      0.000u      0.000s      0.008w    132 calls
HF: Form D                  :      0.017u      0.000s      0.001w    132 calls
CIWave: CIvect write        :      0.000u      0.000s      0.003w    460 calls
CIWave: CIvect read         :      0.033u      0.000s      0.017w   6329 calls
CIWave: s2                  :      0.017u      0.017s      0.047w    210 calls
CIWave: s1                  :      0.000u      0.000s      0.003w    378 calls
CIWave: s3                  :      0.217u      0.067s      0.120w    378 calls
CIWave: s3_mt               :      0.100u      0.017s      0.088w  28510 calls
CIWave: opdm                :      0.000u      0.000s      0.002w      4 calls
Total PK formation time     :      0.167u      0.000s      0.099w      2 calls

-----------------------------------------------------------
DFH: initialize()           :      0.200u      0.000s      0.120w      4 calls
| DFH: sparsity prep        :      0.067u      0.000s      0.034w      4 calls
| DFH: AO Construction      :      0.033u      0.000s      0.020w      4 calls
| DFH: AO-Met. Contraction  :      0.000u      0.000s      0.002w      4 calls
HF: Form H                  :      0.000u      0.000s      0.006w      6 calls
HF: Form S/X                :      0.000u      0.000s      0.001w      6 calls
HF: Guess                   :      0.000u      0.000s      0.001w      6 calls
HF: Form G                  :      2.083u      0.000s      1.265w    132 calls
| JK: D                     :      0.000u      0.000s      0.000w    132 calls
| JK: USO2AO                :      0.000u      0.000s      0.000w    132 calls
| JK: JK                    :      2.067u      0.000s      1.262w    132 calls
| | DFH: compute_JK()       :      0.017u      0.000s      0.016w     66 calls
| | | DFH: Grabbing AOs     :      0.000u      0.000s      0.000w     66 calls
| | | DFH: compute_J        :      0.000u      0.000s      0.005w     66 calls
| | | DFH: compute_K        :      0.017u      0.000s      0.011w     66 calls
| | PK computes JK          :      0.000u      0.000s      0.003w     34 calls
| JK: AO2USO                :      0.000u      0.000s      0.000w    132 calls
HF: Form F                  :      0.000u      0.000s      0.003w    132 calls
HF: DIIS                    :      0.033u      0.000s      0.008w    132 calls
| DIISManager::add_entry    :      0.017u      0.000s      0.002w     60 calls
| DIISManager::extrapolate  :      0.017u      0.000s      0.004w     56 calls
| | bMatrix setup           :      0.000u      0.000s      0.001w     56 calls
| | bMatrix pseudoinverse   :      0.000u      0.000s      0.001w     56 calls
| | New vector              :      0.017u      0.000s      0.001w     56 calls
HF: Form C                  :      0.000u      0.000s      0.008w    132 calls
HF: Form D                  :      0.017u      0.000s      0.001w    132 calls
CIWave: CIvect write        :      0.000u      0.000s      0.003w    460 calls
CIWave: CIvect read         :      0.033u      0.000s      0.017w   6301 calls
CIWave: s2                  :      0.017u      0.017s      0.047w    210 calls
CIWave: s1                  :      0.000u      0.000s      0.003w    378 calls
CIWave: s3                  :      0.217u      0.067s      0.120w    378 calls
| CIWave: s3_mt             :      0.100u      0.017s      0.088w  28510 calls
CIWave: opdm                :      0.000u      0.000s      0.002w      4 calls
| CIWave: CIvect read       :      0.000u      0.000s      0.000w     28 calls
Total PK formation time     :      0.167u      0.000s      0.099w      2 calls

***********************************************************

Host: Spektor

Timers On : Wed Feb 27 13:08:53 2019
Timers Off: Wed Feb 27 13:09:52 2019

Wall Time:       59.37 seconds

DFH: initialize()           :      0.200u      0.000s      0.118w      4 calls
DFH: sparsity prep          :      0.050u      0.000s      0.034w      4 calls
DFH: AO Construction        :      0.050u      0.000s      0.020w      4 calls
DFH: AO-Met. Contraction    :      0.000u      0.000s      0.002w      4 calls
HF: Form H                  :      0.000u      0.017s      0.006w      6 calls
HF: Form S/X                :      0.000u      0.000s      0.001w      6 calls
HF: Guess                   :      0.000u      0.000s      0.001w      6 calls
HF: Form G                  :      2.100u      0.033s      1.265w    132 calls
JK: D                       :      0.000u      0.000s      0.000w    132 calls
JK: USO2AO                  :      0.000u      0.000s      0.000w    132 calls
JK: JK                      :      2.100u      0.033s      1.263w    132 calls
DFH: compute_JK()           :      0.017u      0.017s      0.016w     66 calls
DFH: Grabbing AOs           :      0.000u      0.000s      0.000w     66 calls
DFH: compute_J              :      0.017u      0.017s      0.005w     66 calls
DFH: compute_K              :      0.000u      0.000s      0.011w     66 calls
PK computes JK              :      0.017u      0.000s      0.003w     34 calls
JK: AO2USO                  :      0.000u      0.000s      0.000w    132 calls
HF: Form F                  :      0.017u      0.000s      0.003w    132 calls
HF: DIIS                    :      0.000u      0.000s      0.008w    132 calls
DIISManager::add_entry      :      0.000u      0.000s      0.002w     60 calls
DIISManager::extrapolate    :      0.000u      0.000s      0.004w     56 calls
bMatrix setup               :      0.000u      0.000s      0.001w     56 calls
bMatrix pseudoinverse       :      0.000u      0.000s      0.001w     56 calls
New vector                  :      0.000u      0.000s      0.001w     56 calls
HF: Form C                  :      0.017u      0.000s      0.008w    132 calls
HF: Form D                  :      0.000u      0.000s      0.001w    132 calls
CIWave: CIvect write        :      0.000u      0.000s      0.003w    460 calls
CIWave: CIvect read         :      0.033u      0.000s      0.017w   6329 calls
CIWave: s2                  :      0.133u      0.000s      0.047w    210 calls
CIWave: s1                  :      0.000u      0.000s      0.003w    378 calls
CIWave: s3                  :      0.100u      0.033s      0.120w    378 calls
CIWave: s3_mt               :      0.050u      0.033s      0.088w  28510 calls
CIWave: opdm                :      0.017u      0.000s      0.002w      4 calls
Total PK formation time     :      0.167u      0.000s      0.099w      2 calls

-----------------------------------------------------------
DFH: initialize()           :      0.200u      0.000s      0.118w      4 calls
| DFH: sparsity prep        :      0.050u      0.000s      0.034w      4 calls
| DFH: AO Construction      :      0.050u      0.000s      0.020w      4 calls
| DFH: AO-Met. Contraction  :      0.000u      0.000s      0.002w      4 calls
HF: Form H                  :      0.000u      0.017s      0.006w      6 calls
HF: Form S/X                :      0.000u      0.000s      0.001w      6 calls
HF: Guess                   :      0.000u      0.000s      0.001w      6 calls
HF: Form G                  :      2.100u      0.033s      1.265w    132 calls
| JK: D                     :      0.000u      0.000s      0.000w    132 calls
| JK: USO2AO                :      0.000u      0.000s      0.000w    132 calls
| JK: JK                    :      2.100u      0.033s      1.263w    132 calls
| | DFH: compute_JK()       :      0.017u      0.017s      0.016w     66 calls
| | | DFH: Grabbing AOs     :      0.000u      0.000s      0.000w     66 calls
| | | DFH: compute_J        :      0.017u      0.017s      0.005w     66 calls
| | | DFH: compute_K        :      0.000u      0.000s      0.011w     66 calls
| | PK computes JK          :      0.017u      0.000s      0.003w     34 calls
| JK: AO2USO                :      0.000u      0.000s      0.000w    132 calls
HF: Form F                  :      0.017u      0.000s      0.003w    132 calls
HF: DIIS                    :      0.000u      0.000s      0.008w    132 calls
| DIISManager::add_entry    :      0.000u      0.000s      0.002w     60 calls
| DIISManager::extrapolate  :      0.000u      0.000s      0.004w     56 calls
| | bMatrix setup           :      0.000u      0.000s      0.001w     56 calls
| | bMatrix pseudoinverse   :      0.000u      0.000s      0.001w     56 calls
| | New vector              :      0.000u      0.000s      0.001w     56 calls
HF: Form C                  :      0.017u      0.000s      0.008w    132 calls
HF: Form D                  :      0.000u      0.000s      0.001w    132 calls
CIWave: CIvect write        :      0.000u      0.000s      0.003w    460 calls
CIWave: CIvect read         :      0.033u      0.000s      0.017w   6301 calls
CIWave: s2                  :      0.133u      0.000s      0.047w    210 calls
CIWave: s1                  :      0.000u      0.000s      0.003w    378 calls
CIWave: s3                  :      0.100u      0.033s      0.120w    378 calls
| CIWave: s3_mt             :      0.050u      0.033s      0.088w  28510 calls
CIWave: opdm                :      0.017u      0.000s      0.002w      4 calls
| CIWave: CIvect read       :      0.000u      0.000s      0.000w     28 calls
Total PK formation time     :      0.167u      0.000s      0.099w      2 calls

***********************************************************

Host: Spektor

Timers On : Wed Feb 27 13:11:13 2019
Timers Off: Wed Feb 27 13:12:13 2019

Wall Time:       59.63 seconds

DFH: initialize()           :      0.200u      0.000s      0.119w      4 calls
DFH: sparsity prep          :      0.067u      0.000s      0.034w      4 calls
DFH: AO Construction        :      0.033u      0.000s      0.020w      4 calls
DFH: AO-Met. Contraction    :      0.000u      0.000s      0.002w      4 calls
HF: Form H                  :      0.000u      0.000s      0.007w      6 calls
HF: Form S/X                :      0.000u      0.000s      0.001w      6 calls
HF: Guess                   :      0.000u      0.000s      0.001w      6 calls
HF: Form G                  :      2.100u      0.000s      1.265w    132 calls
JK: D                       :      0.000u      0.000s      0.000w    132 calls
JK: USO2AO                  :      0.000u      0.000s      0.000w    132 calls
JK: JK                      :      2.100u      0.000s      1.263w    132 calls
DFH: compute_JK()           :      0.000u      0.000s      0.016w     66 calls
DFH: Grabbing AOs           :      0.000u      0.000s      0.000w     66 calls
DFH: compute_J              :      0.000u      0.000s      0.005w     66 calls
DFH: compute_K              :      0.000u      0.000s      0.011w     66 calls
PK computes JK              :      0.000u      0.000s      0.003w     34 calls
JK: AO2USO                  :      0.000u      0.000s      0.000w    132 calls
HF: Form F                  :      0.000u      0.000s      0.003w    132 calls
HF: DIIS                    :      0.000u      0.000s      0.008w    132 calls
DIISManager::add_entry      :      0.000u      0.000s      0.002w     60 calls
DIISManager::extrapolate    :      0.000u      0.000s      0.004w     56 calls
bMatrix setup               :      0.000u      0.000s      0.001w     56 calls
bMatrix pseudoinverse       :      0.000u      0.000s      0.001w     56 calls
New vector                  :      0.000u      0.000s      0.001w     56 calls
HF: Form C                  :      0.033u      0.000s      0.008w    132 calls
HF: Form D                  :      0.000u      0.000s      0.001w    132 calls
CIWave: CIvect write        :      0.000u      0.000s      0.003w    460 calls
CIWave: CIvect read         :      0.017u      0.000s      0.017w   6329 calls
CIWave: s2                  :      0.100u      0.017s      0.047w    210 calls
CIWave: s1                  :      0.000u      0.000s      0.003w    378 calls
CIWave: s3                  :      0.117u      0.050s      0.124w    378 calls
CIWave: s3_mt               :      0.083u      0.033s      0.092w  28510 calls
CIWave: opdm                :      0.000u      0.000s      0.002w      4 calls
Total PK formation time     :      0.167u      0.000s      0.099w      2 calls

-----------------------------------------------------------
DFH: initialize()           :      0.200u      0.000s      0.119w      4 calls
| DFH: sparsity prep        :      0.067u      0.000s      0.034w      4 calls
| DFH: AO Construction      :      0.033u      0.000s      0.020w      4 calls
| DFH: AO-Met. Contraction  :      0.000u      0.000s      0.002w      4 calls
HF: Form H                  :      0.000u      0.000s      0.007w      6 calls
HF: Form S/X                :      0.000u      0.000s      0.001w      6 calls
HF: Guess                   :      0.000u      0.000s      0.001w      6 calls
HF: Form G                  :      2.100u      0.000s      1.265w    132 calls
| JK: D                     :      0.000u      0.000s      0.000w    132 calls
| JK: USO2AO                :      0.000u      0.000s      0.000w    132 calls
| JK: JK                    :      2.100u      0.000s      1.263w    132 calls
| | DFH: compute_JK()       :      0.000u      0.000s      0.016w     66 calls
| | | DFH: Grabbing AOs     :      0.000u      0.000s      0.000w     66 calls
| | | DFH: compute_J        :      0.000u      0.000s      0.005w     66 calls
| | | DFH: compute_K        :      0.000u      0.000s      0.011w     66 calls
| | PK computes JK          :      0.000u      0.000s      0.003w     34 calls
| JK: AO2USO                :      0.000u      0.000s      0.000w    132 calls
HF: Form F                  :      0.000u      0.000s      0.003w    132 calls
HF: DIIS                    :      0.000u      0.000s      0.008w    132 calls
| DIISManager::add_entry    :      0.000u      0.000s      0.002w     60 calls
| DIISManager::extrapolate  :      0.000u      0.000s      0.004w     56 calls
| | bMatrix setup           :      0.000u      0.000s      0.001w     56 calls
| | bMatrix pseudoinverse   :      0.000u      0.000s      0.001w     56 calls
| | New vector              :      0.000u      0.000s      0.001w     56 calls
HF: Form C                  :      0.033u      0.000s      0.008w    132 calls
HF: Form D                  :      0.000u      0.000s      0.001w    132 calls
CIWave: CIvect write        :      0.000u      0.000s      0.003w    460 calls
CIWave: CIvect read         :      0.017u      0.000s      0.017w   6301 calls
CIWave: s2                  :      0.100u      0.017s      0.047w    210 calls
CIWave: s1                  :      0.000u      0.000s      0.003w    378 calls
CIWave: s3                  :      0.117u      0.050s      0.124w    378 calls
| CIWave: s3_mt             :      0.083u      0.033s      0.092w  28510 calls
CIWave: opdm                :      0.000u      0.000s      0.002w      4 calls
| CIWave: CIvect read       :      0.000u      0.000s      0.000w     28 calls
Total PK formation time     :      0.167u      0.000s      0.099w      2 calls

***********************************************************

Host: Spektor

Timers On : Wed Feb 27 13:15:02 2019
Timers Off: Wed Feb 27 13:15:42 2019

Wall Time:       40.02 seconds

DFH: initialize()           :      0.200u      0.000s      0.121w      4 calls
DFH: sparsity prep          :      0.067u      0.000s      0.035w      4 calls
DFH: AO Construction        :      0.050u      0.000s      0.020w      4 calls
DFH: AO-Met. Contraction    :      0.000u      0.000s      0.002w      4 calls
HF: Form H                  :      0.000u      0.000s      0.006w      6 calls
HF: Form S/X                :      0.000u      0.000s      0.001w      6 calls
HF: Guess                   :      0.000u      0.000s      0.001w      6 calls
HF: Form G                  :      2.100u      0.050s      1.269w    132 calls
JK: D                       :      0.000u      0.000s      0.000w    132 calls
JK: USO2AO                  :      0.000u      0.000s      0.000w    132 calls
JK: JK                      :      2.100u      0.050s      1.267w    132 calls
DFH: compute_JK()           :      0.033u      0.017s      0.016w     66 calls
DFH: Grabbing AOs           :      0.000u      0.000s      0.000w     66 calls
DFH: compute_J              :      0.000u      0.017s      0.005w     66 calls
DFH: compute_K              :      0.033u      0.000s      0.011w     66 calls
PK computes JK              :      0.000u      0.000s      0.003w     34 calls
JK: AO2USO                  :      0.000u      0.000s      0.000w    132 calls
HF: Form F                  :      0.000u      0.000s      0.003w    132 calls
HF: DIIS                    :      0.000u      0.000s      0.008w    132 calls
DIISManager::add_entry      :      0.000u      0.000s      0.002w     60 calls
DIISManager::extrapolate    :      0.000u      0.000s      0.004w     56 calls
bMatrix setup               :      0.000u      0.000s      0.001w     56 calls
bMatrix pseudoinverse       :      0.000u      0.000s      0.001w     56 calls
New vector                  :      0.000u      0.000s      0.001w     56 calls
HF: Form C                  :      0.033u      0.000s      0.008w    132 calls
HF: Form D                  :      0.000u      0.000s      0.001w    132 calls
CIWave: CIvect write        :      0.000u      0.000s      0.003w    460 calls
CIWave: CIvect read         :      0.050u      0.000s      0.017w   6329 calls
CIWave: s2                  :      0.083u      0.017s      0.047w    210 calls
CIWave: s1                  :      0.017u      0.000s      0.003w    378 calls
CIWave: s3                  :      0.083u      0.067s      0.120w    378 calls
CIWave: s3_mt               :      0.067u      0.067s      0.088w  28510 calls
CIWave: opdm                :      0.000u      0.000s      0.002w      4 calls
Total PK formation time     :      0.167u      0.000s      0.099w      2 calls

-----------------------------------------------------------
DFH: initialize()           :      0.200u      0.000s      0.121w      4 calls
| DFH: sparsity prep        :      0.067u      0.000s      0.035w      4 calls
| DFH: AO Construction      :      0.050u      0.000s      0.020w      4 calls
| DFH: AO-Met. Contraction  :      0.000u      0.000s      0.002w      4 calls
HF: Form H                  :      0.000u      0.000s      0.006w      6 calls
HF: Form S/X                :      0.000u      0.000s      0.001w      6 calls
HF: Guess                   :      0.000u      0.000s      0.001w      6 calls
HF: Form G                  :      2.100u      0.050s      1.269w    132 calls
| JK: D                     :      0.000u      0.000s      0.000w    132 calls
| JK: USO2AO                :      0.000u      0.000s      0.000w    132 calls
| JK: JK                    :      2.100u      0.050s      1.267w    132 calls
| | DFH: compute_JK()       :      0.033u      0.017s      0.016w     66 calls
| | | DFH: Grabbing AOs     :      0.000u      0.000s      0.000w     66 calls
| | | DFH: compute_J        :      0.000u      0.017s      0.005w     66 calls
| | | DFH: compute_K        :      0.033u      0.000s      0.011w     66 calls
| | PK computes JK          :      0.000u      0.000s      0.003w     34 calls
| JK: AO2USO                :      0.000u      0.000s      0.000w    132 calls
HF: Form F                  :      0.000u      0.000s      0.003w    132 calls
HF: DIIS                    :      0.000u      0.000s      0.008w    132 calls
| DIISManager::add_entry    :      0.000u      0.000s      0.002w     60 calls
| DIISManager::extrapolate  :      0.000u      0.000s      0.004w     56 calls
| | bMatrix setup           :      0.000u      0.000s      0.001w     56 calls
| | bMatrix pseudoinverse   :      0.000u      0.000s      0.001w     56 calls
| | New vector              :      0.000u      0.000s      0.001w     56 calls
HF: Form C                  :      0.033u      0.000s      0.008w    132 calls
HF: Form D                  :      0.000u      0.000s      0.001w    132 calls
CIWave: CIvect write        :      0.000u      0.000s      0.003w    460 calls
CIWave: CIvect read         :      0.050u      0.000s      0.017w   6301 calls
CIWave: s2                  :      0.083u      0.017s      0.047w    210 calls
CIWave: s1                  :      0.017u      0.000s      0.003w    378 calls
CIWave: s3                  :      0.083u      0.067s      0.120w    378 calls
| CIWave: s3_mt             :      0.067u      0.067s      0.088w  28510 calls
CIWave: opdm                :      0.000u      0.000s      0.002w      4 calls
| CIWave: CIvect read       :      0.000u      0.000s      0.000w     28 calls
Total PK formation time     :      0.167u      0.000s      0.099w      2 calls

***********************************************************

Host: Spektor

Timers On : Wed Feb 27 13:42:26 2019
Timers Off: Wed Feb 27 13:42:30 2019

Wall Time:        4.45 seconds

DFH: initialize()           :      0.300u      0.017s      0.175w      6 calls
DFH: sparsity prep          :      0.050u      0.000s      0.050w      6 calls
DFH: AO Construction        :      0.067u      0.000s      0.029w      6 calls
DFH: AO-Met. Contraction    :      0.000u      0.017s      0.003w      6 calls
HF: Form H                  :      0.000u      0.000s      0.006w      6 calls
HF: Form S/X                :      0.000u      0.000s      0.001w      6 calls
HF: Guess                   :      0.000u      0.000s      0.001w      6 calls
HF: Form G                  :      3.183u      0.000s      1.907w    148 calls
JK: D                       :      0.000u      0.000s      0.001w    148 calls
JK: USO2AO                  :      0.000u      0.000s      0.000w    148 calls
JK: JK                      :      3.183u      0.000s      1.904w    148 calls
DFH: compute_JK()           :      0.017u      0.000s      0.024w    100 calls
DFH: Grabbing AOs           :      0.000u      0.000s      0.000w    100 calls
DFH: compute_J              :      0.000u      0.000s      0.007w    100 calls
DFH: compute_K              :      0.017u      0.000s      0.016w    100 calls
JK: AO2USO                  :      0.000u      0.000s      0.000w    148 calls
HF: Form F                  :      0.017u      0.000s      0.003w    148 calls
HF: DIIS                    :      0.000u      0.000s      0.008w    148 calls
DIISManager::add_entry      :      0.000u      0.000s      0.002w     72 calls
DIISManager::extrapolate    :      0.000u      0.000s      0.004w     66 calls
bMatrix setup               :      0.000u      0.000s      0.001w     66 calls
bMatrix pseudoinverse       :      0.000u      0.000s      0.001w     66 calls
New vector                  :      0.000u      0.000s      0.001w     66 calls
HF: Form C                  :      0.017u      0.000s      0.009w    148 calls
HF: Form D                  :      0.000u      0.000s      0.001w    148 calls
CIWave: CIvect write        :      0.000u      0.000s      0.001w    156 calls
CIWave: CIvect read         :      0.017u      0.000s      0.002w    866 calls
CIWave: s2                  :      0.000u      0.000s      0.000w     16 calls
CIWave: s1                  :      0.000u      0.000s      0.000w     16 calls
CIWave: s3                  :      0.000u      0.000s      0.000w     16 calls
CIWave: s3_mt               :      0.000u      0.000s      0.000w    248 calls
CIWave: opdm                :      0.000u      0.000s      0.000w      4 calls

-----------------------------------------------------------
DFH: initialize()           :      0.300u      0.017s      0.175w      6 calls
| DFH: sparsity prep        :      0.050u      0.000s      0.050w      6 calls
| DFH: AO Construction      :      0.067u      0.000s      0.029w      6 calls
| DFH: AO-Met. Contraction  :      0.000u      0.017s      0.003w      6 calls
HF: Form H                  :      0.000u      0.000s      0.006w      6 calls
HF: Form S/X                :      0.000u      0.000s      0.001w      6 calls
HF: Guess                   :      0.000u      0.000s      0.001w      6 calls
HF: Form G                  :      3.183u      0.000s      1.907w    148 calls
[...]

-----------------------------------------------------------
DFH: initialize()           :      0.183u      0.000s      0.117w      4 calls
| DFH: sparsity prep        :      0.067u      0.000s      0.034w      4 calls
| DFH: AO Construction      :      0.017u      0.000s      0.020w      4 calls
| DFH: AO-Met. Contraction  :      0.000u      0.000s      0.002w      4 calls
HF: Form H                  :      0.017u      0.000s      0.007w      6 calls
HF: Form S/X                :      0.000u      0.000s      0.001w      6 calls
HF: Guess                   :      0.000u      0.000s      0.001w      6 calls
HF: Form G                  :      2.083u      0.000s      1.254w    132 calls
| JK: D                     :      0.017u      0.000s      0.000w    132 calls
| JK: USO2AO                :      0.000u      0.000s      0.000w    132 calls
| JK: JK                    :      2.067u      0.000s      1.251w    132 calls
| | DFH: compute_JK()       :      0.017u      0.000s      0.016w     66 calls
| | | DFH: Grabbing AOs     :      0.000u      0.000s      0.000w     66 calls
| | | DFH: compute_J        :      0.017u      0.000s      0.005w     66 calls
| | | DFH: compute_K        :      0.000u      0.000s      0.011w     66 calls
| | PK computes JK          :      0.000u      0.000s      0.003w     34 calls
| JK: AO2USO                :      0.000u      0.000s      0.000w    132 calls
HF: Form F                  :      0.000u      0.000s      0.002w    132 calls
HF: DIIS                    :      0.017u      0.000s      0.007w    132 calls
| DIISManager::add_entry    :      0.000u      0.000s      0.002w     60 calls
| DIISManager::extrapolate  :      0.017u      0.000s      0.003w     56 calls
| | bMatrix setup           :      0.000u      0.000s      0.001w     56 calls
| | bMatrix pseudoinverse   :      0.000u      0.000s      0.001w     56 calls
| | New vector              :      0.017u      0.000s      0.001w     56 calls
HF: Form C                  :      0.033u      0.000s      0.008w    132 calls
HF: Form D                  :      0.000u      0.000s      0.001w    132 calls
CIWave: CIvect write        :      0.000u      0.000s      0.001w    156 calls
CIWave: CIvect read         :      0.017u      0.000s      0.002w    838 calls
CIWave: s2                  :      0.000u      0.000s      0.000w     80 calls
CIWave: s1                  :      0.000u      0.000s      0.001w    144 calls
CIWave: s3                  :      0.017u      0.000s      0.013w    144 calls
| CIWave: s3_mt             :      0.017u      0.000s      0.004w   3136 calls
CIWave: opdm                :      0.000u      0.000s      0.001w      4 calls
| CIWave: CIvect read       :      0.000u      0.000s      0.000w     28 calls
Total PK formation time     :      0.167u      0.000s      0.098w      2 calls

***********************************************************

Host: Spektor

Timers On : Wed Aug 21 11:35:48 2019
Timers Off: Wed Aug 21 11:35:58 2019

Wall Time:        9.61 seconds

DFH: initialize()           :      0.150u      0.017s      0.117w      4 calls
DFH: sparsity prep          :      0.067u      0.000s      0.034w      4 calls
DFH: AO Construction        :      0.017u      0.000s      0.019w      4 calls
DFH: AO-Met. Contraction    :      0.000u      0.000s      0.002w      4 calls
HF: Form H                  :      0.017u      0.000s      0.022w      6 calls
HF: Form S/X                :      0.000u      0.000s      0.001w      6 calls
HF: Guess                   :      0.000u      0.000s      0.001w      6 calls
HF: Form G                  :      2.050u      0.000s      1.250w    132 calls
JK: D                       :      0.000u      0.000s      0.001w    132 calls
JK: USO2AO                  :      0.000u      0.000s      0.000w    132 calls
JK: JK                      :      2.033u      0.000s      1.247w    132 calls
DFH: compute_JK()           :      0.033u      0.000s      0.016w     66 calls
DFH: Grabbing AOs           :      0.000u      0.000s      0.000w     66 calls
DFH: compute_J              :      0.017u      0.000s      0.005w     66 calls
DFH: compute_K              :      0.017u      0.000s      0.011w     66 calls
PK computes JK              :      0.000u      0.000s      0.003w     34 calls
JK: AO2USO                  :      0.017u      0.000s      0.000w    132 calls
HF: Form F                  :      0.017u      0.000s      0.002w    132 calls
HF: DIIS                    :      0.000u      0.000s      0.007w    132 calls
DIISManager::add_entry      :      0.000u      0.000s      0.002w     60 calls
DIISManager::extrapolate    :      0.000u      0.000s      0.004w     56 calls
bMatrix setup               :      0.000u      0.000s      0.001w     56 calls
bMatrix pseudoinverse       :      0.000u      0.000s      0.001w     56 calls
New vector                  :      0.000u      0.000s      0.001w     56 calls
HF: Form C                  :      0.017u      0.000s      0.008w    132 calls
HF: Form D                  :      0.000u      0.000s      0.001w    132 calls
CIWave: CIvect write        :      0.000u      0.000s      0.003w    460 calls
CIWave: CIvect read         :      0.050u      0.000s      0.021w   6329 calls
CIWave: s2                  :      0.033u      0.017s      0.045w    210 calls
CIWave: s1                  :      0.000u      0.000s      0.003w    378 calls
CIWave: s3                  :      0.233u      0.033s      0.132w    378 calls
CIWave: s3_mt               :      0.150u      0.017s      0.093w  28510 calls
CIWave: opdm                :      0.017u      0.000s      0.002w      4 calls
Total PK formation time     :      0.167u      0.000s      0.102w      2 calls

-----------------------------------------------------------
DFH: initialize()           :      0.150u      0.017s      0.117w      4 calls
| DFH: sparsity prep        :      0.067u      0.000s      0.034w      4 calls
| DFH: AO Construction      :      0.017u      0.000s      0.019w      4 calls
| DFH: AO-Met. Contraction  :      0.000u      0.000s      0.002w      4 calls
HF: Form H                  :      0.017u      0.000s      0.022w      6 calls
HF: Form S/X                :      0.000u      0.000s      0.001w      6 calls
HF: Guess                   :      0.000u      0.000s      0.001w      6 calls
HF: Form G                  :      2.050u      0.000s      1.250w    132 calls
| JK: D                     :      0.000u      0.000s      0.001w    132 calls
| JK: USO2AO                :      0.000u      0.000s      0.000w    132 calls
| JK: JK                    :      2.033u      0.000s      1.247w    132 calls
| | DFH: compute_JK()       :      0.033u      0.000s      0.016w     66 calls
| | | DFH: Grabbing AOs     :      0.000u      0.000s      0.000w     66 calls
| | | DFH: compute_J        :      0.017u      0.000s      0.005w     66 calls
| | | DFH: compute_K        :      0.017u      0.000s      0.011w     66 calls
| | PK computes JK          :      0.000u      0.000s      0.003w     34 calls
| JK: AO2USO                :      0.017u      0.000s      0.000w    132 calls
HF: Form F                  :      0.017u      0.000s      0.002w    132 calls
HF: DIIS                    :      0.000u      0.000s      0.007w    132 calls
| DIISManager::add_entry    :      0.000u      0.000s      0.002w     60 calls
| DIISManager::extrapolate  :      0.000u      0.000s      0.004w     56 calls
| | bMatrix setup           :      0.000u      0.000s      0.001w     56 calls
| | bMatrix pseudoinverse   :      0.000u      0.000s      0.001w     56 calls
| | New vector              :      0.000u      0.000s      0.001w     56 calls
HF: Form C                  :      0.017u      0.000s      0.008w    132 calls
HF: Form D                  :      0.000u      0.000s      0.001w    132 calls
CIWave: CIvect write        :      0.000u      0.000s      0.003w    460 calls
CIWave: CIvect read         :      0.050u      0.000s      0.021w   6301 calls
CIWave: s2                  :      0.033u      0.017s      0.045w    210 calls
CIWave: s1                  :      0.000u      0.000s      0.003w    378 calls
CIWave: s3                  :      0.233u      0.033s      0.132w    378 calls
| CIWave: s3_mt             :      0.150u      0.017s      0.093w  28510 calls
CIWave: opdm                :      0.017u      0.000s      0.002w      4 calls
| CIWave: CIvect read       :      0.000u      0.000s      0.000w     28 calls
Total PK formation time     :      0.167u      0.000s      0.102w      2 calls

***********************************************************

Host: Spektor

Timers On : Wed Aug 21 11:36:00 2019
Timers Off: Wed Aug 21 11:36:12 2019

Wall Time:       11.81 seconds

DFH: initialize()           :      0.183u      0.000s      0.117w      4 calls
DFH: sparsity prep          :      0.050u      0.000s      0.034w      4 calls
DFH: AO Construction        :      0.033u      0.000s      0.019w      4 calls
DFH: AO-Met. Contraction    :      0.017u      0.000s      0.002w      4 calls
HF: Form H                  :      0.017u      0.017s      0.007w      6 calls
HF: Form S/X                :      0.000u      0.000s      0.001w      6 calls
HF: Guess                   :      0.000u      0.000s      0.001w      6 calls
HF: Form G                  :      2.067u      0.017s      1.256w    132 calls
JK: D                       :      0.000u      0.000s      0.001w    132 calls
JK: USO2AO                  :      0.000u      0.000s      0.000w    132 calls
JK: JK                      :      2.067u      0.017s      1.253w    132 calls
DFH: compute_JK()           :      0.017u      0.017s      0.022w     66 calls
DFH: Grabbing AOs           :      0.000u      0.000s      0.000w     66 calls
DFH: compute_J              :      0.000u      0.000s      0.006w     66 calls
DFH: compute_K              :      0.017u      0.017s      0.014w     66 calls
PK computes JK              :      0.017u      0.000s      0.003w     34 calls
JK: AO2USO                  :      0.000u      0.000s      0.000w    132 calls
HF: Form F                  :      0.000u      0.000s      0.003w    132 calls
HF: DIIS                    :      0.017u      0.000s      0.008w    132 calls
DIISManager::add_entry      :      0.000u      0.000s      0.002w     60 calls
DIISManager::extrapolate    :      0.000u      0.000s      0.004w     56 calls
bMatrix setup               :      0.000u      0.000s      0.001w     56 calls
bMatrix pseudoinverse       :      0.000u      0.000s      0.001w     56 calls
New vector                  :      0.000u      0.000s      0.001w     56 calls
HF: Form C                  :      0.033u      0.000s      0.009w    132 calls
HF: Form D                  :      0.000u      0.000s      0.001w    132 calls
CIWave: CIvect write        :      0.000u      0.000s      0.004w    546 calls
CIWave: CIvect read         :      0.067u      0.000s      0.033w   9126 calls
CIWave: s2                  :      0.150u      0.000s      0.067w    539 calls
CIWave: s1                  :      0.017u      0.000s      0.018w   1225 calls
CIWave: s3                  :      0.317u      0.033s      0.241w   1029 calls
CIWave: s3_mt               :      0.200u      0.017s      0.146w  55301 calls
CIWave: opdm                :      0.000u      0.000s      0.003w      4 calls
Total PK formation time     :      0.150u      0.000s      0.098w      2 calls

-----------------------------------------------------------
DFH: initialize()           :      0.183u      0.000s      0.117w      4 calls
| DFH: sparsity prep        :      0.050u      0.000s      0.034w      4 calls
| DFH: AO Construction      :      0.033u      0.000s      0.019w      4 calls
| DFH: AO-Met. Contraction  :      0.017u      0.000s      0.002w      4 calls
HF: Form H                  :      0.017u      0.017s      0.007w      6 calls
HF: Form S/X                :      0.000u      0.000s      0.001w      6 calls
HF: Guess                   :      0.000u      0.000s      0.001w      6 calls
HF: Form G                  :      2.067u      0.017s      1.256w    132 calls
| JK: D                     :      0.000u      0.000s      0.001w    132 calls
| JK: USO2AO                :      0.000u      0.000s      0.000w    132 calls
| JK: JK                    :      2.067u      0.017s      1.253w    132 calls
| | DFH: compute_JK()       :      0.017u      0.017s      0.022w     66 calls
| | | DFH: Grabbing AOs     :      0.000u      0.000s      0.000w     66 calls
| | | DFH: compute_J        :      0.000u      0.000s      0.006w     66 calls
| | | DFH: compute_K        :      0.017u      0.017s      0.014w     66 calls
| | PK computes JK          :      0.017u      0.000s      0.003w     34 calls
| JK: AO2USO                :      0.000u      0.000s      0.000w    132 calls
HF: Form F                  :      0.000u      0.000s      0.003w    132 calls
HF: DIIS                    :      0.017u      0.000s      0.008w    132 calls
| DIISManager::add_entry    :      0.000u      0.000s      0.002w     60 calls
| DIISManager::extrapolate  :      0.000u      0.000s      0.004w     56 calls
| | bMatrix setup           :      0.000u      0.000s      0.001w     56 calls
| | bMatrix pseudoinverse   :      0.000u      0.000s      0.001w     56 calls
| | New vector              :      0.000u      0.000s      0.001w     56 calls
HF: Form C                  :      0.033u      0.000s      0.009w    132 calls
HF: Form D                  :      0.000u      0.000s      0.001w    132 calls
CIWave: CIvect write        :      0.000u      0.000s      0.004w    546 calls
CIWave: CIvect read         :      0.067u      0.000s      0.033w   9098 calls
CIWave: s2                  :      0.150u      0.000s      0.067w    539 calls
CIWave: s1                  :      0.017u      0.000s      0.018w   1225 calls
CIWave: s3                  :      0.317u      0.033s      0.241w   1029 calls
| CIWave: s3_mt             :      0.200u      0.017s      0.146w  55301 calls
CIWave: opdm                :      0.000u      0.000s      0.003w      4 calls
| CIWave: CIvect read       :      0.000u      0.000s      0.000w     28 calls
Total PK formation time     :      0.150u      0.000s      0.098w      2 calls

***********************************************************

Host: Spektor

Timers On : Wed Aug 21 13:23:25 2019
Timers Off: Wed Aug 21 13:23:48 2019

Wall Time:       22.82 seconds

DFH: initialize()           :      0.700u      0.000s      0.435w     15 calls
DFH: sparsity prep          :      0.183u      0.000s      0.125w     15 calls
DFH: AO Construction        :      0.117u      0.000s      0.073w     15 calls
DFH: AO-Met. Contraction    :      0.000u      0.000s      0.008w     15 calls
HF: Form H                  :      0.000u      0.017s      0.023w     21 calls
HF: Form S/X                :      0.017u      0.000s      0.002w     21 calls
HF: Guess                   :      0.033u      0.000s      0.002w     21 calls
HF: Form G                  :      7.850u      0.017s      4.731w    454 calls
JK: D                       :      0.000u      0.000s      0.002w    454 calls
JK: USO2AO                  :      0.000u      0.000s      0.001w    454 calls
JK: JK                      :      7.833u      0.017s      4.721w    454 calls
DFH: compute_JK()           :      0.050u      0.017s      0.059w    232 calls
DFH: Grabbing AOs           :      0.000u      0.000s      0.000w    232 calls
DFH: compute_J              :      0.033u      0.000s      0.017w    232 calls
DFH: compute_K              :      0.017u      0.017s      0.040w    232 calls
PK computes JK              :      0.017u      0.000s      0.009w    102 calls
JK: AO2USO                  :      0.000u      0.000s      0.000w    454 calls
HF: Form F                  :      0.000u      0.017s      0.009w    454 calls
HF: DIIS                    :      0.033u      0.000s      0.027w    454 calls
DIISManager::add_entry      :      0.000u      0.000s      0.007w    219 calls
DIISManager::extrapolate    :      0.017u      0.000s      0.013w    204 calls
bMatrix setup               :      0.000u      0.000s      0.005w    204 calls
bMatrix pseudoinverse       :      0.000u      0.000s      0.004w    204 calls
New vector                  :      0.000u      0.000s      0.004w    204 calls
HF: Form C                  :      0.033u      0.000s      0.027w    454 calls
HF: Form D                  :      0.000u      0.000s      0.002w    454 calls
CIWave: CIvect write        :      0.083u      0.017s      0.045w   7008 calls
CIWave: CIvect read         :      2.200u      0.883s      1.752w 443447 calls
CIWave: s2                  :      0.800u      0.200s      0.584w   4408 calls
CIWave: s1                  :      0.200u      0.050s      0.119w   9024 calls
CIWave: s3                  :      2.617u      0.650s      2.058w   8176 calls
CIWave: s3_mt               :      1.583u      0.300s      1.272w 440352 calls
CIWave: opdm                :      0.000u      0.000s      0.002w     10 calls
Total PK formation time     :      0.500u      0.000s      0.293w      6 calls

-----------------------------------------------------------
DFH: initialize()           :      0.700u      0.000s      0.435w     15 calls
| DFH: sparsity prep        :      0.183u      0.000s      0.125w     15 calls
| DFH: AO Construction      :      0.117u      0.000s      0.073w     15 calls
| DFH: AO-Met. Contraction  :      0.000u      0.000s      0.008w     15 calls
HF: Form H                  :      0.000u      0.017s      0.023w     21 calls
HF: Form S/X                :      0.017u      0.000s      0.002w     21 calls
HF: Guess                   :      0.033u      0.000s      0.002w     21 calls
HF: Form G                  :      7.850u      0.017s      4.731w    454 calls
| JK: D                     :      0.000u      0.000s      0.002w    454 calls
| JK: USO2AO                :      0.000u      0.000s      0.001w    454 calls
| JK: JK                    :      7.833u      0.017s      4.721w    454 calls
| | DFH: compute_JK()       :      0.050u      0.017s      0.059w    232 calls
| | | DFH: Grabbing AOs     :      0.000u      0.000s      0.000w    232 calls
| | | DFH: compute_J        :      0.033u      0.000s      0.017w    232 calls
| | | DFH: compute_K        :      0.017u      0.017s      0.040w    232 calls
| | PK computes JK          :      0.017u      0.000s      0.009w    102 calls
| JK: AO2USO                :      0.000u      0.000s      0.000w    454 calls
HF: Form F                  :      0.000u      0.017s      0.009w    454 calls
HF: DIIS                    :      0.033u      0.000s      0.027w    454 calls
| DIISManager::add_entry    :      0.000u      0.000s      0.007w    219 calls
| DIISManager::extrapolate  :      0.017u      0.000s      0.013w    204 calls
| | bMatrix setup           :      0.000u      0.000s      0.005w    204 calls
| | bMatrix pseudoinverse   :      0.000u      0.000s      0.004w    204 calls
| | New vector              :      0.000u      0.000s      0.004w    204 calls
HF: Form C                  :      0.033u      0.000s      0.027w    454 calls
HF: Form D                  :      0.000u      0.000s      0.002w    454 calls
CIWave: CIvect write        :      0.083u      0.017s      0.045w   7008 calls
CIWave: CIvect read         :      2.200u      0.883s      1.751w 443377 calls
CIWave: s2                  :      0.800u      0.200s      0.584w   4408 calls
CIWave: s1                  :      0.200u      0.050s      0.119w   9024 calls
CIWave: s3                  :      2.617u      0.650s      2.058w   8176 calls
| CIWave: s3_mt             :      1.583u      0.300s      1.272w 440352 calls
CIWave: opdm                :      0.000u      0.000s      0.002w     10 calls
| CIWave: CIvect read       :      0.000u      0.000s      0.000w     70 calls
Total PK formation time     :      0.500u      0.000s      0.293w      6 calls

***********************************************************
